/*--------------------------------*- C++ -*----------------------------------*\
| =========                 |                                                 |
| \\      /  F ield         | OpenFOAM: The Open Source CFD Toolbox           |
|  \\    /   O peration     | Version:  2306                                  |
|   \\  /    A nd           | Website:  www.openfoam.com                      |
|    \\/     M anipulation  |                                                 |
\*---------------------------------------------------------------------------*/
FoamFile
{
    version     2.0;
    format      ascii;
    arch        "LSB;label=32;scalar=64";
    class       volScalarField;
    location    "500";
    object      k;
}
// * * * * * * * * * * * * * * * * * * * * * * * * * * * * * * * * * * * * * //

dimensions      [0 2 -2 0 0 0 0];

internalField   nonuniform List<scalar> 
25600
(
0.00541281
0.00844037
0.0107735
0.012308
0.0131509
0.0134798
0.0134616
0.0132257
0.0128626
0.0124315
0.0119688
0.0114968
0.0110314
0.0105787
0.010141
0.00972112
0.0093232
0.00895196
0.00860595
0.00828243
0.00798127
0.00770398
0.00745291
0.00722956
0.00703438
0.00686733
0.00672783
0.00661434
0.00652445
0.00645523
0.00640361
0.00636673
0.00634212
0.00632777
0.00632249
0.00632544
0.00633691
0.00635492
0.00639255
0.00640736
0.00376626
0.00380934
0.00385489
0.00389299
0.00391174
0.00390551
0.00387696
0.00383404
0.00378682
0.00374529
0.00371828
0.00371502
0.00373969
0.0037981
0.00389789
0.00404677
0.00426324
0.00452888
0.00481688
0.00512265
0.00543921
0.00573888
0.00601858
0.00628062
0.00652783
0.00676215
0.00698532
0.00719781
0.00740025
0.00759275
0.00777519
0.00794738
0.00810914
0.00826043
0.00840106
0.00853104
0.00864989
0.00875565
0.0088566
0.00890121
0.00372504
0.00366277
0.00358563
0.00349437
0.00339186
0.00328206
0.00316877
0.00305532
0.0029446
0.00283949
0.00274276
0.00265643
0.00258262
0.00252358
0.00248171
0.00245862
0.00245668
0.00247643
0.0025168
0.00257683
0.00265535
0.00275082
0.00286191
0.00298836
0.00313081
0.00329064
0.00347431
0.0036624
0.00384902
0.00403301
0.00421449
0.00439376
0.00457088
0.00474557
0.00491731
0.00508536
0.00524907
0.00540509
0.00555458
0.00567599
0.00372401
0.00367096
0.00361354
0.00355013
0.0034806
0.00340569
0.00332658
0.00324455
0.00316093
0.0030765
0.00299187
0.00290879
0.0028284
0.00275162
0.00267926
0.00261203
0.0025506
0.00249589
0.00244828
0.00240823
0.00237617
0.0023525
0.00233751
0.00233145
0.00233508
0.0023489
0.00237278
0.00240564
0.00244654
0.00249514
0.00255149
0.00261653
0.00268829
0.00276434
0.00284399
0.00292724
0.00301431
0.00310424
0.00319632
0.0032826
0.00372382
0.00367222
0.00362071
0.00356797
0.00351321
0.0034561
0.00339667
0.00333519
0.00327212
0.00320788
0.00314283
0.00307745
0.00301226
0.00294775
0.00288437
0.00282254
0.00276261
0.00270457
0.00264914
0.00259668
0.00254742
0.0025016
0.00245944
0.00242115
0.00238691
0.00235683
0.00233095
0.00230926
0.00229167
0.00227817
0.00226879
0.00226373
0.00226315
0.00226701
0.00227535
0.00228786
0.00230393
0.00232302
0.00234462
0.0023674
0.00372355
0.0036719
0.00362147
0.00357168
0.00352202
0.00347205
0.00342142
0.00336998
0.00331773
0.00326477
0.00321123
0.00315729
0.00310315
0.00304904
0.00299519
0.00294183
0.00288919
0.0028374
0.00278667
0.0027372
0.00268918
0.00264277
0.00259811
0.00255535
0.00251459
0.00247594
0.00243948
0.00240523
0.00237319
0.00234333
0.00231564
0.00229014
0.00226687
0.00224588
0.00222721
0.00221085
0.00219667
0.0021845
0.00217413
0.00216538
0.00372344
0.00367152
0.00362107
0.00357185
0.00352363
0.00347614
0.0034291
0.00338225
0.00333542
0.00328852
0.00324152
0.00319443
0.00314729
0.00310017
0.00305316
0.00300637
0.00295992
0.00291389
0.00286841
0.00282357
0.00277948
0.00273626
0.00269398
0.00265276
0.00261265
0.00257375
0.00253612
0.0024998
0.00246484
0.00243124
0.00239901
0.00236814
0.00233866
0.00231055
0.00228385
0.00225857
0.00223467
0.00221212
0.00219086
0.00217082
0.00372337
0.00367132
0.00362071
0.00357146
0.00352348
0.00347665
0.0034308
0.00338574
0.0033413
0.00329736
0.00325379
0.00321053
0.00316753
0.00312478
0.00308227
0.00304002
0.00299806
0.00295643
0.00291519
0.00287437
0.00283405
0.00279426
0.00275508
0.00271654
0.00267872
0.00264165
0.00260538
0.00256996
0.00253542
0.00250178
0.00246907
0.00243729
0.00240647
0.0023766
0.0023477
0.00231977
0.00229283
0.00226686
0.00224186
0.00221783
0.00372333
0.00367117
0.00362044
0.0035711
0.00352309
0.00347635
0.00343078
0.00338627
0.0033427
0.00329997
0.00325798
0.00321662
0.00317583
0.00313555
0.00309572
0.00305632
0.00301732
0.00297872
0.00294052
0.00290273
0.00286536
0.00282844
0.00279198
0.00275601
0.00272056
0.00268566
0.00265132
0.00261759
0.00258447
0.002552
0.0025202
0.00248908
0.00245864
0.00242892
0.0023999
0.00237161
0.00234406
0.00231725
0.00229118
0.00226587
0.0037233
0.00367107
0.00362026
0.00357083
0.00352275
0.00347596
0.0034304
0.003386
0.00334268
0.00330036
0.00325896
0.00321842
0.00317865
0.00313959
0.00310119
0.00306339
0.00302614
0.00298942
0.00295319
0.00291744
0.00288215
0.00284732
0.00281294
0.00277901
0.00274554
0.00271253
0.00268
0.00264796
0.00261641
0.00258538
0.00255486
0.00252488
0.00249543
0.00246654
0.00243821
0.00241045
0.00238327
0.00235668
0.00233068
0.00230528
0.00372328
0.003671
0.00362012
0.00357064
0.00352249
0.00347565
0.00343004
0.00338562
0.00334233
0.0033001
0.00325889
0.00321863
0.00317926
0.00314074
0.003103
0.00306599
0.00302966
0.00299397
0.00295889
0.00292437
0.00289039
0.00285693
0.00282397
0.00279149
0.00275947
0.00272791
0.00269681
0.00266617
0.00263597
0.00260623
0.00257695
0.00254812
0.00251977
0.00249187
0.00246446
0.00243752
0.00241106
0.00238509
0.00235962
0.00233465
0.00372326
0.00367095
0.00362003
0.00357049
0.0035223
0.00347541
0.00342976
0.0033853
0.00334198
0.00329975
0.00325856
0.00321838
0.00317914
0.00314081
0.00310333
0.00306666
0.00303076
0.00299559
0.0029611
0.00292725
0.00289402
0.00286137
0.00282928
0.00279772
0.00276666
0.00273609
0.002706
0.00267638
0.0026472
0.00261848
0.00259019
0.00256234
0.00253493
0.00250795
0.0024814
0.00245528
0.00242959
0.00240434
0.00237952
0.00235513
0.00372325
0.00367091
0.00361996
0.00357039
0.00352216
0.00347523
0.00342955
0.00338505
0.0033417
0.00329945
0.00325825
0.00321807
0.00317886
0.00314058
0.00310319
0.00306665
0.00303092
0.00299597
0.00296175
0.00292824
0.00289539
0.00286318
0.00283157
0.00280054
0.00277006
0.00274011
0.00271067
0.00268171
0.00265324
0.00262522
0.00259766
0.00257054
0.00254385
0.00251758
0.00249174
0.00246631
0.00244129
0.00241668
0.00239247
0.00236865
0.00372325
0.00367088
0.0036199
0.00357031
0.00352207
0.00347511
0.0034294
0.00338489
0.00334151
0.00329924
0.00325802
0.00321783
0.00317861
0.00314034
0.00310297
0.00306648
0.00303081
0.00299594
0.00296184
0.00292848
0.00289581
0.00286381
0.00283245
0.0028017
0.00277153
0.00274193
0.00271287
0.00268432
0.00265628
0.00262872
0.00260163
0.002575
0.00254882
0.00252306
0.00249773
0.00247282
0.00244831
0.0024242
0.00240049
0.00237715
0.00372324
0.00367086
0.00361987
0.00357027
0.003522
0.00347504
0.00342932
0.00338479
0.0033414
0.00329912
0.0032579
0.0032177
0.00317847
0.0031402
0.00310284
0.00306635
0.00303071
0.00299587
0.00296181
0.0029285
0.00289591
0.00286401
0.00283276
0.00280215
0.00277215
0.00274273
0.00271387
0.00268556
0.00265776
0.00263047
0.00260367
0.00257735
0.00255148
0.00252606
0.00250108
0.00247651
0.00245236
0.00242861
0.00240525
0.00238227
0.00372324
0.00367085
0.00361985
0.00357024
0.00352198
0.00347501
0.00342929
0.00338476
0.00334137
0.00329909
0.00325787
0.00321767
0.00317845
0.00314018
0.00310282
0.00306633
0.0030307
0.00299587
0.00296184
0.00292855
0.00289599
0.00286413
0.00283293
0.00280238
0.00277246
0.00274313
0.00271437
0.00268617
0.00265851
0.00263137
0.00260473
0.00257858
0.00255291
0.00252769
0.00250291
0.00247857
0.00245465
0.00243113
0.00240801
0.00238527
0.00372324
0.00367085
0.00361985
0.00357024
0.00352198
0.00347501
0.0034293
0.00338478
0.0033414
0.00329913
0.00325792
0.00321772
0.00317851
0.00314025
0.0031029
0.00306642
0.0030308
0.00299598
0.00296195
0.00292868
0.00289613
0.00286429
0.00283311
0.00280259
0.0027727
0.00274341
0.0027147
0.00268656
0.00265897
0.0026319
0.00260535
0.00257929
0.00255371
0.00252861
0.00250395
0.00247974
0.00245595
0.00243257
0.0024096
0.002387
0.00372324
0.00367085
0.00361985
0.00357025
0.003522
0.00347504
0.00342934
0.00338483
0.00334147
0.00329921
0.00325801
0.00321783
0.00317864
0.00314038
0.00310304
0.00306658
0.00303096
0.00299615
0.00296213
0.00292886
0.00289632
0.00286449
0.00283333
0.00280282
0.00277294
0.00274367
0.00271498
0.00268686
0.0026593
0.00263227
0.00260575
0.00257974
0.00255422
0.00252916
0.00250457
0.00248042
0.00245671
0.00243341
0.00241051
0.002388
0.00372324
0.00367085
0.00361986
0.00357026
0.00352202
0.00347508
0.00342939
0.0033849
0.00334155
0.00329931
0.00325812
0.00321795
0.00317876
0.00314052
0.00310319
0.00306673
0.00303112
0.00299632
0.00296231
0.00292905
0.00289651
0.00286468
0.00283352
0.00280302
0.00277315
0.00274388
0.0027152
0.0026871
0.00265954
0.00263253
0.00260603
0.00258004
0.00255453
0.00252951
0.00250494
0.00248082
0.00245714
0.00243387
0.00241101
0.00238854
0.00372324
0.00367085
0.00361987
0.00357028
0.00352204
0.00347511
0.00342943
0.00338495
0.00334161
0.00329937
0.00325819
0.00321803
0.00317885
0.00314061
0.00310328
0.00306683
0.00303122
0.00299643
0.00296242
0.00292916
0.00289663
0.0028648
0.00283364
0.00280314
0.00277327
0.00274401
0.00271533
0.00268723
0.00265968
0.00263267
0.00260617
0.00258019
0.00255469
0.00252967
0.00250511
0.002481
0.00245733
0.00243407
0.00241122
0.00238876
0.00372324
0.00367085
0.00361987
0.00357028
0.00352204
0.00347511
0.00342943
0.00338495
0.00334161
0.00329937
0.00325819
0.00321803
0.00317885
0.00314061
0.00310328
0.00306683
0.00303122
0.00299643
0.00296242
0.00292916
0.00289663
0.0028648
0.00283364
0.00280314
0.00277327
0.002744
0.00271533
0.00268723
0.00265967
0.00263266
0.00260617
0.00258018
0.00255468
0.00252965
0.00250509
0.00248098
0.00245729
0.00243403
0.00241117
0.00238871
0.00372324
0.00367085
0.00361986
0.00357026
0.00352202
0.00347508
0.00342939
0.0033849
0.00334155
0.00329931
0.00325812
0.00321795
0.00317876
0.00314052
0.00310319
0.00306673
0.00303112
0.00299632
0.0029623
0.00292904
0.00289651
0.00286468
0.00283352
0.00280302
0.00277314
0.00274387
0.0027152
0.00268709
0.00265953
0.00263251
0.00260601
0.00258001
0.00255449
0.00252946
0.00250488
0.00248075
0.00245704
0.00243375
0.00241087
0.00238837
0.00372324
0.00367085
0.00361985
0.00357025
0.003522
0.00347504
0.00342934
0.00338483
0.00334147
0.00329921
0.00325801
0.00321783
0.00317864
0.00314038
0.00310304
0.00306658
0.00303096
0.00299615
0.00296213
0.00292886
0.00289632
0.00286448
0.00283332
0.00280281
0.00277293
0.00274365
0.00271497
0.00268685
0.00265927
0.00263224
0.00260571
0.00257969
0.00255415
0.00252908
0.00250447
0.0024803
0.00245655
0.00243321
0.00241027
0.00238771
0.00372324
0.00367085
0.00361985
0.00357024
0.00352198
0.00347501
0.0034293
0.00338478
0.0033414
0.00329913
0.00325792
0.00321772
0.00317851
0.00314025
0.0031029
0.00306642
0.00303079
0.00299598
0.00296195
0.00292867
0.00289613
0.00286428
0.00283311
0.00280258
0.00277269
0.00274339
0.00271468
0.00268654
0.00265893
0.00263186
0.00260529
0.00257922
0.00255363
0.00252849
0.00250381
0.00247956
0.00245572
0.00243229
0.00240926
0.00238659
0.00372324
0.00367085
0.00361985
0.00357024
0.00352198
0.00347501
0.00342929
0.00338476
0.00334137
0.00329909
0.00325787
0.00321767
0.00317845
0.00314018
0.00310282
0.00306633
0.0030307
0.00299587
0.00296183
0.00292855
0.00289598
0.00286412
0.00283292
0.00280237
0.00277244
0.00274311
0.00271435
0.00268614
0.00265847
0.00263132
0.00260466
0.00257849
0.00255279
0.00252754
0.00250273
0.00247834
0.00245436
0.00243077
0.00240756
0.00238472
0.00372324
0.00367086
0.00361987
0.00357027
0.003522
0.00347504
0.00342932
0.00338479
0.0033414
0.00329912
0.0032579
0.00321769
0.00317847
0.0031402
0.00310284
0.00306635
0.0030307
0.00299587
0.00296181
0.0029285
0.0028959
0.002864
0.00283275
0.00280214
0.00277213
0.0027427
0.00271384
0.00268551
0.00265771
0.0026304
0.00260359
0.00257724
0.00255134
0.00252588
0.00250084
0.00247622
0.00245199
0.00242815
0.00240468
0.00238157
0.00372325
0.00367088
0.0036199
0.00357031
0.00352207
0.00347511
0.0034294
0.00338489
0.00334151
0.00329924
0.00325802
0.00321783
0.00317861
0.00314034
0.00310297
0.00306647
0.00303081
0.00299594
0.00296184
0.00292847
0.0028958
0.0028638
0.00283243
0.00280168
0.00277151
0.0027419
0.00271283
0.00268427
0.00265622
0.00262864
0.00260153
0.00257487
0.00254864
0.00252284
0.00249745
0.00247246
0.00244785
0.00242362
0.00239976
0.00237626
0.00372325
0.00367091
0.00361996
0.00357039
0.00352216
0.00347523
0.00342955
0.00338505
0.0033417
0.00329945
0.00325825
0.00321807
0.00317885
0.00314057
0.00310318
0.00306665
0.00303092
0.00299597
0.00296175
0.00292823
0.00289538
0.00286317
0.00283156
0.00280052
0.00277003
0.00274007
0.00271062
0.00268165
0.00265316
0.00262512
0.00259753
0.00257037
0.00254363
0.00251731
0.00249139
0.00246586
0.00244072
0.00241596
0.00239156
0.00236753
0.00372326
0.00367095
0.00362003
0.00357049
0.0035223
0.00347541
0.00342976
0.0033853
0.00334198
0.00329975
0.00325856
0.00321838
0.00317914
0.0031408
0.00310333
0.00306666
0.00303076
0.00299558
0.00296109
0.00292724
0.00289401
0.00286136
0.00282926
0.00279769
0.00276663
0.00273605
0.00270595
0.00267631
0.00264711
0.00261836
0.00259004
0.00256215
0.00253467
0.00250762
0.00248098
0.00245474
0.0024289
0.00240346
0.00237841
0.00235374
0.00372328
0.003671
0.00362012
0.00357064
0.00352249
0.00347564
0.00343004
0.00338562
0.00334233
0.0033001
0.00325889
0.00321863
0.00317926
0.00314074
0.00310299
0.00306598
0.00302965
0.00299397
0.00295888
0.00292436
0.00289038
0.00285692
0.00282395
0.00279146
0.00275943
0.00272786
0.00269675
0.00266608
0.00263586
0.00260609
0.00257676
0.00254789
0.00251946
0.00249148
0.00246395
0.00243686
0.00241023
0.00238403
0.00235828
0.00233297
0.0037233
0.00367107
0.00362026
0.00357083
0.00352275
0.00347596
0.0034304
0.003386
0.00334268
0.00330036
0.00325896
0.00321842
0.00317865
0.00313959
0.00310119
0.00306338
0.00302614
0.00298941
0.00295318
0.00291742
0.00288213
0.0028473
0.00281291
0.00277897
0.00274549
0.00271247
0.00267993
0.00264786
0.00261628
0.00258521
0.00255464
0.00252459
0.00249507
0.00246607
0.00243761
0.00240968
0.00238229
0.00235544
0.00232912
0.00230333
0.00372333
0.00367117
0.00362044
0.0035711
0.00352309
0.00347635
0.00343078
0.00338627
0.0033427
0.00329997
0.00325797
0.00321662
0.00317583
0.00313554
0.00309571
0.00305631
0.00301731
0.00297871
0.00294051
0.00290272
0.00286534
0.00282842
0.00279195
0.00275597
0.00272051
0.00268558
0.00265123
0.00261746
0.00258431
0.0025518
0.00251994
0.00248874
0.00245821
0.00242837
0.00239921
0.00237073
0.00234295
0.00231586
0.00228946
0.00226374
0.00372337
0.00367132
0.00362071
0.00357146
0.00352348
0.00347665
0.0034308
0.00338574
0.0033413
0.00329735
0.00325379
0.00321053
0.00316753
0.00312478
0.00308227
0.00304001
0.00299805
0.00295642
0.00291518
0.00287436
0.00283403
0.00279423
0.00275504
0.00271649
0.00267865
0.00264156
0.00260527
0.00256981
0.00253523
0.00250154
0.00246876
0.00243691
0.00240598
0.00237599
0.00234693
0.00231882
0.00229166
0.00226544
0.00224016
0.00221579
0.00372344
0.00367152
0.00362107
0.00357185
0.00352363
0.00347614
0.0034291
0.00338225
0.00333542
0.00328852
0.00324152
0.00319443
0.00314729
0.00310017
0.00305316
0.00300637
0.00295991
0.00291388
0.00286839
0.00282355
0.00277946
0.00273622
0.00269394
0.00265269
0.00261257
0.00257365
0.00253598
0.00249963
0.00246462
0.00243096
0.00239866
0.00236772
0.00233813
0.00230992
0.00228309
0.00225767
0.00223364
0.00221098
0.00218965
0.00216966
0.00372355
0.0036719
0.00362147
0.00357168
0.00352202
0.00347205
0.00342142
0.00336998
0.00331773
0.00326477
0.00321123
0.00315728
0.00310315
0.00304904
0.00299519
0.00294183
0.00288918
0.00283738
0.00278664
0.00273717
0.00268914
0.00264272
0.00259805
0.00255527
0.00251449
0.00247582
0.00243933
0.00240504
0.00237295
0.00234304
0.00231531
0.00228976
0.00226645
0.00224545
0.00222683
0.00221059
0.00219667
0.002185
0.00217559
0.0021685
0.00372382
0.00367222
0.00362071
0.00356797
0.00351321
0.0034561
0.00339667
0.00333519
0.00327212
0.00320788
0.00314283
0.00307745
0.00301226
0.00294775
0.00288436
0.00282253
0.00276259
0.00270455
0.00264911
0.00259664
0.00254737
0.00250154
0.00245936
0.00242106
0.00238681
0.00235671
0.00233082
0.00230913
0.00229157
0.00227813
0.00226886
0.00226404
0.00226386
0.0022683
0.00227757
0.00229144
0.00230953
0.00233178
0.00235833
0.00238951
0.00372401
0.00367096
0.00361354
0.00355013
0.0034806
0.00340569
0.00332658
0.00324455
0.00316092
0.0030765
0.00299186
0.00290878
0.00282839
0.00275161
0.00267925
0.00261201
0.00255058
0.00249587
0.00244825
0.00240819
0.00237613
0.00235247
0.0023375
0.00233148
0.00233519
0.00234914
0.0023732
0.00240636
0.0024477
0.00249698
0.00255433
0.0026209
0.0026945
0.00277308
0.00285622
0.00294446
0.00303853
0.0031388
0.00324528
0.00335817
0.00372504
0.00366277
0.00358563
0.00349437
0.00339186
0.00328206
0.00316877
0.00305531
0.00294459
0.00283949
0.00274276
0.00265643
0.00258261
0.00252357
0.00248171
0.00245862
0.0024567
0.00247647
0.00251688
0.00257697
0.0026556
0.00275121
0.0028625
0.00298925
0.00313212
0.00329261
0.00347703
0.00366614
0.00385403
0.0040397
0.00422339
0.00440556
0.00458647
0.00476616
0.0049444
0.0051209
0.00529544
0.00546778
0.00563771
0.00580484
0.00376626
0.00380934
0.00385489
0.00389299
0.00391175
0.00390552
0.00387696
0.00383405
0.00378683
0.0037453
0.0037183
0.00371504
0.00373972
0.00379815
0.00389796
0.00404688
0.0042634
0.0045291
0.00481716
0.00512303
0.00543969
0.00573947
0.0060193
0.00628152
0.00652893
0.0067635
0.00698695
0.00719973
0.00740251
0.0075954
0.00777824
0.00795085
0.00811306
0.00826473
0.00840586
0.00853638
0.00865628
0.00876569
0.00886486
0.00895363
0.00541281
0.00844037
0.0107735
0.012308
0.0131509
0.0134798
0.0134616
0.0132257
0.0128626
0.0124314
0.0119688
0.0114967
0.0110313
0.0105786
0.0101409
0.00972088
0.00932286
0.0089515
0.00860531
0.00828154
0.00798004
0.0077023
0.00745065
0.00722652
0.00703033
0.006862
0.00672092
0.00660546
0.00651306
0.00644061
0.00638482
0.00634257
0.00631103
0.00628767
0.00627032
0.00625742
0.0062476
0.00623958
0.0062323
0.00622482
0.00660315
0.00882841
0.0131667
0.0181743
0.0224221
0.0254454
0.02749
0.028936
0.0300311
0.0308984
0.031603
0.0321908
0.0326958
0.0331472
0.0335711
0.0339928
0.0344358
0.0349199
0.0354617
0.036071
0.0367533
0.0375102
0.0383389
0.0392301
0.0401697
0.0411389
0.0421169
0.043078
0.043995
0.0448414
0.0455915
0.0462247
0.0467256
0.0470852
0.0473
0.0473711
0.0473051
0.0471108
0.0467969
0.04637
0.0458349
0.0451939
0.0444495
0.0436042
0.0426619
0.0416274
0.0405072
0.0393085
0.0380386
0.0367046
0.035313
0.0338696
0.0323796
0.0308491
0.0292846
0.0276929
0.0260815
0.0244575
0.0228285
0.0212028
0.0195891
0.0179951
0.0164288
0.0148976
0.0134096
0.0119719
0.0105941
0.00928514
0.00805487
0.00691352
0.00587352
0.00494769
0.00414684
0.00347718
0.00293772
0.00251933
0.00220596
0.00197736
0.00181276
0.00169433
0.00160784
0.00154309
0.00149319
0.00145237
0.00141143
0.00135493
0.00128413
0.00130818
0.00173516
0.0028759
0.00465475
0.00662064
0.00832531
0.00956595
0.0103619
0.0108265
0.0110804
0.011217
0.0112977
0.0113596
0.0114239
0.011503
0.0116037
0.0117221
0.0118385
0.0119327
0.0119925
0.0120154
0.0120049
0.0119659
0.0119026
0.0118167
0.0117075
0.0115717
0.0114032
0.0111952
0.0109414
0.0106383
0.0102845
0.00987557
0.00940573
0.0088747
0.00829446
0.00770538
0.00716334
0.0067007
0.00631523
0.00598559
0.00569906
0.00544701
0.00521601
0.00498529
0.00475517
0.00459519
0.00458275
0.00467597
0.00480187
0.00491265
0.00498945
0.00502307
0.00500931
0.0049566
0.00487702
0.00478021
0.0046738
0.00456326
0.00445231
0.00434305
0.0042365
0.00413287
0.00403198
0.00393338
0.00383669
0.00374152
0.0036477
0.00355514
0.00346398
0.00337442
0.00328679
0.00320147
0.00311891
0.00303955
0.00296384
0.00289221
0.00282509
0.00276313
0.00270671
0.00265575
0.00260986
0.00256844
0.00253085
0.00249642
0.00246456
0.00243479
0.00240671
0.00238006
0.00235462
0.00233026
0.00230686
0.00228433
0.00226259
0.00224158
0.00222123
0.0022015
0.00218233
0.00216368
0.0021455
0.00212777
0.00211041
0.0020934
0.00207668
0.00206025
0.00204412
0.00202839
0.00201311
0.00199834
0.00198408
0.00197036
0.0019571
0.00194424
0.00193165
0.00191925
0.0019069
0.0018945
0.00188194
0.00186917
0.00185611
0.00184276
0.0018291
0.00181515
0.00180092
0.00178644
0.0017717
0.00175677
0.00174165
0.00172637
0.0017109
0.00169524
0.00167945
0.0016637
0.00164835
0.00163394
0.00162113
0.00161056
0.00160264
0.00159743
0.00159448
0.00159293
0.00159167
0.00158956
0.00158573
0.00157965
0.00157122
0.00156069
0.00154825
0.0015341
0.00151859
0.0015021
0.00148512
0.00146812
0.00145147
0.0014353
0.00141945
0.00140331
0.00138551
0.00136288
0.00133074
0.00129114
0.00125626
0.00123235
0.00121738
0.00120688
0.0011981
0.00118997
0.00118195
0.0011739
0.00116582
0.00115777
0.00114981
0.001142
0.0011344
0.00112705
0.00112003
0.00111336
0.00110709
0.00110124
0.00109586
0.00109094
0.00108652
0.00108259
0.00107914
0.00107618
0.00107367
0.0010716
0.00106991
0.00106857
0.00106753
0.00106671
0.00106608
0.00106556
0.0010651
0.00106466
0.0010642
0.00106369
0.00106311
0.00106248
0.00106178
0.00106104
0.00106027
0.00105949
0.00105871
0.00105794
0.00105718
0.00105642
0.00105564
0.0010548
0.0010539
0.00105272
0.00105193
0.00104871
0.00907146
0.00964263
0.0107374
0.0125234
0.0149936
0.0178493
0.0206582
0.0230971
0.0250593
0.0265989
0.0278227
0.0288188
0.0296439
0.0303383
0.0309386
0.0314792
0.0319912
0.0325003
0.0330284
0.0335926
0.0342056
0.0348761
0.0356085
0.0364015
0.0372492
0.0381398
0.0390575
0.0399818
0.0408884
0.0417509
0.0425431
0.0432414
0.0438258
0.0442815
0.0445992
0.0447751
0.0448109
0.0447117
0.0444839
0.0441336
0.0436659
0.0430845
0.0423929
0.0415948
0.040695
0.039699
0.0386139
0.0374468
0.0362057
0.0348979
0.0335303
0.0321092
0.0306406
0.0291309
0.0275869
0.0260154
0.0244241
0.0228206
0.0212129
0.0196097
0.0180195
0.0164511
0.0149128
0.0134134
0.0119622
0.0105693
0.00924495
0.00799966
0.00684545
0.00579621
0.00486582
0.00406557
0.00340109
0.00287026
0.00246238
0.00215986
0.00194164
0.00178673
0.00167672
0.00159721
0.00153808
0.00149261
0.00145613
0.001423
0.00138135
0.00131961
0.00128935
0.00153798
0.00247116
0.0042359
0.00646844
0.00859992
0.0102577
0.0113665
0.012023
0.0123719
0.0125377
0.0126063
0.0126297
0.0126365
0.0126421
0.0126553
0.0126803
0.0127118
0.0127358
0.0127401
0.0127185
0.0126705
0.0125987
0.0125056
0.0123929
0.0122605
0.0121065
0.0119273
0.011717
0.0114691
0.0111789
0.010846
0.0104706
0.0100482
0.00956749
0.00902076
0.00841806
0.00780436
0.00724246
0.00676624
0.00637821
0.00604567
0.0057548
0.00549976
0.00527279
0.00505384
0.00483092
0.00465495
0.004624
0.0047088
0.00482892
0.00493041
0.00499235
0.00500948
0.00497969
0.00491275
0.0048217
0.00471624
0.0046036
0.00448875
0.00437492
0.00426382
0.00415617
0.00405197
0.00395091
0.00385252
0.00375635
0.00366206
0.00356948
0.00347853
0.00338936
0.00330215
0.00321721
0.0031349
0.0030556
0.00297969
0.00290757
0.00283959
0.00277614
0.00271775
0.00266464
0.00261661
0.00257322
0.00253389
0.00249801
0.002465
0.00243434
0.00240561
0.0023785
0.00235279
0.00232831
0.00230495
0.00228262
0.00226123
0.00224073
0.00222105
0.00220212
0.00218391
0.00216636
0.00214942
0.00213305
0.0021172
0.00210179
0.00208676
0.00207204
0.00205757
0.00204335
0.00202943
0.00201586
0.00200267
0.00198986
0.00197743
0.00196531
0.00195343
0.00194169
0.00192998
0.00191819
0.00190625
0.00189404
0.00188153
0.00186865
0.00185541
0.00184179
0.00182781
0.00181349
0.00179887
0.00178394
0.00176878
0.00175345
0.00173795
0.00172224
0.00170622
0.00168977
0.00167286
0.00165559
0.00163843
0.00162213
0.00160764
0.00159578
0.0015871
0.00158158
0.00157864
0.00157722
0.00157605
0.00157392
0.00156995
0.00156369
0.0015551
0.00154455
0.00153216
0.00151819
0.00150298
0.001487
0.00147075
0.00145472
0.00143918
0.00142416
0.00140928
0.00139355
0.00137435
0.00134662
0.00130777
0.00126832
0.00123845
0.00121899
0.00120598
0.00119584
0.0011868
0.00117812
0.0011695
0.00116092
0.00115241
0.00114402
0.00113584
0.00112792
0.00112033
0.00111312
0.00110634
0.00110003
0.00109421
0.00108892
0.00108415
0.00107992
0.00107622
0.00107303
0.00107033
0.00106808
0.00106625
0.00106478
0.00106362
0.00106271
0.00106198
0.00106139
0.00106087
0.00106037
0.00105987
0.00105932
0.00105872
0.00105807
0.00105736
0.00105662
0.00105587
0.00105512
0.00105438
0.00105368
0.00105302
0.00105238
0.00105176
0.00105114
0.00105045
0.0010497
0.00104867
0.00104804
0.00104492
0.00581971
0.0060194
0.00630862
0.00678694
0.00758939
0.00883034
0.0105452
0.0126554
0.014987
0.0173318
0.0195125
0.0214247
0.0230428
0.0243954
0.0255336
0.026507
0.0273588
0.028126
0.0288416
0.029534
0.0302268
0.0309381
0.0316814
0.0324653
0.0332937
0.0341643
0.0350694
0.0359954
0.0369237
0.0378309
0.0386921
0.0394821
0.0401776
0.0407588
0.041211
0.0415252
0.0416978
0.0417297
0.0416242
0.0413859
0.0410198
0.0405302
0.0399215
0.0391983
0.0383664
0.0374319
0.0364024
0.0352856
0.03409
0.0328232
0.0314931
0.0301065
0.0286706
0.0271922
0.0256785
0.0241366
0.0225749
0.0210013
0.0194246
0.0178538
0.016298
0.0147673
0.0132705
0.0118196
0.0104251
0.00909857
0.00785149
0.00669784
0.00565304
0.00473168
0.00394495
0.00329745
0.00278501
0.00239524
0.00210898
0.00190435
0.00176034
0.00165895
0.00158636
0.00153285
0.00149182
0.00145902
0.00143099
0.00140068
0.00135541
0.00130888
0.00141929
0.00208407
0.00365806
0.00599404
0.00850642
0.0106406
0.0121607
0.0130985
0.0136032
0.0138339
0.0139107
0.0139091
0.0138709
0.0138174
0.0137595
0.0137033
0.0136516
0.0136005
0.013541
0.0134666
0.0133741
0.0132638
0.0131364
0.0129928
0.0128328
0.0126554
0.0124581
0.0122374
0.0119882
0.0117052
0.0113854
0.0110304
0.0106391
0.010206
0.00971704
0.00915447
0.00852805
0.00788976
0.00730956
0.0068237
0.00643521
0.0061014
0.00580733
0.0055487
0.00532354
0.00511677
0.00490902
0.00472646
0.00467338
0.00474374
0.00485425
0.00494485
0.00499107
0.00499257
0.00494846
0.00486914
0.00476823
0.00465542
0.00453753
0.00441911
0.00430294
0.00419039
0.00408194
0.00397741
0.00387641
0.00377841
0.00368296
0.00358971
0.00349849
0.00340925
0.00332211
0.00323724
0.00315493
0.00307547
0.00299921
0.00292648
0.00285759
0.00279283
0.00273255
0.00267717
0.00262678
0.00258109
0.00253965
0.00250191
0.0024673
0.00243531
0.00240549
0.00237751
0.00235109
0.00232606
0.00230229
0.0022797
0.0022582
0.00223774
0.00221825
0.00219968
0.00218198
0.00216509
0.00214897
0.00213357
0.00211883
0.00210471
0.00209111
0.00207795
0.00206511
0.00205249
0.00204007
0.00202787
0.00201588
0.00200415
0.00199265
0.00198136
0.00197023
0.00195917
0.00194811
0.00193694
0.00192558
0.00191395
0.00190198
0.00188963
0.00187685
0.00186365
0.00185001
0.00183597
0.00182154
0.00180674
0.00179161
0.00177621
0.00176065
0.00174498
0.00172918
0.00171322
0.00169697
0.00168021
0.00166274
0.00164457
0.00162605
0.00160805
0.00159199
0.001579
0.00156969
0.00156398
0.00156114
0.00155988
0.0015588
0.00155663
0.00155252
0.0015461
0.00153748
0.00152695
0.00151468
0.00150094
0.00148612
0.00147072
0.00145528
0.00144022
0.00142574
0.00141168
0.0013974
0.00138105
0.00135809
0.00132303
0.00128162
0.00124571
0.00122077
0.00120438
0.0011924
0.00118223
0.00117289
0.00116371
0.00115465
0.0011457
0.00113695
0.00112844
0.00112026
0.00111247
0.00110513
0.00109829
0.00109198
0.00108623
0.00108106
0.00107646
0.00107243
0.00106896
0.00106601
0.00106355
0.00106154
0.00105991
0.00105862
0.0010576
0.00105679
0.00105613
0.00105555
0.00105502
0.00105449
0.00105393
0.00105332
0.00105267
0.00105197
0.00105124
0.0010505
0.00104978
0.00104909
0.00104845
0.00104786
0.00104734
0.00104686
0.00104642
0.00104598
0.00104549
0.00104494
0.00104411
0.00104366
0.00104073
0.00337251
0.00347102
0.00358019
0.00371576
0.00391053
0.00421159
0.00467916
0.00538175
0.00638398
0.00772418
0.00938789
0.0112945
0.0133127
0.0153003
0.0171464
0.0187935
0.020235
0.0214972
0.0226185
0.0236367
0.0245845
0.0254893
0.0263749
0.0272611
0.0281631
0.0290897
0.0300436
0.0310209
0.0320112
0.0329974
0.0339582
0.0348693
0.0357054
0.0364431
0.0370628
0.0375499
0.037896
0.0380966
0.0381514
0.0380626
0.0378344
0.037471
0.0369776
0.0363596
0.0356234
0.0347758
0.033825
0.0327796
0.0316486
0.0304405
0.0291637
0.0278266
0.026437
0.0250031
0.0235322
0.0220321
0.0205122
0.0189812
0.0174482
0.0159241
0.0144177
0.0129423
0.011509
0.0101302
0.00881819
0.00758649
0.00645112
0.00542861
0.00453384
0.003777
0.00316086
0.00267875
0.00231583
0.00205176
0.0018644
0.00173328
0.00164127
0.00157567
0.00152756
0.00149083
0.00146146
0.00143697
0.00141391
0.00138387
0.00134445
0.00137727
0.00179203
0.00304816
0.00527704
0.00803039
0.0106358
0.0126518
0.0139776
0.0147245
0.0150758
0.0151916
0.0151815
0.0151091
0.0150071
0.0148911
0.0147685
0.0146438
0.0145192
0.0143927
0.0142595
0.0141164
0.0139621
0.0137959
0.0136176
0.0134265
0.0132214
0.0130008
0.0127624
0.0125033
0.0122191
0.011906
0.0115624
0.0111894
0.0107843
0.0103406
0.00984348
0.00926708
0.00861911
0.00796013
0.0073669
0.00687755
0.00648942
0.00615564
0.00585971
0.00559749
0.00537181
0.00517463
0.00498609
0.00480584
0.00473085
0.00478176
0.00487913
0.00495679
0.0049874
0.00497416
0.00491717
0.00482695
0.00471748
0.00459834
0.00447602
0.00435461
0.00423654
0.00412286
0.00401383
0.00390917
0.00380839
0.00371092
0.0036163
0.0035242
0.00343443
0.00334694
0.00326183
0.00317926
0.00309947
0.00302271
0.00294927
0.00287942
0.00281342
0.00275151
0.00269396
0.00264113
0.00259296
0.00254913
0.00250918
0.00247261
0.0024389
0.00240759
0.00237831
0.00235078
0.00232478
0.00230018
0.00227686
0.00225478
0.00223386
0.00221406
0.00219533
0.00217762
0.00216089
0.00214507
0.00213013
0.00211602
0.00210268
0.00209005
0.00207804
0.00206655
0.00205539
0.00204445
0.00203365
0.00202298
0.00201242
0.00200197
0.00199161
0.0019813
0.00197099
0.0019606
0.00195006
0.0019393
0.00192824
0.00191682
0.00190498
0.0018927