/*--------------------------------*- C++ -*----------------------------------*\
| =========                 |                                                 |
| \\      /  F ield         | OpenFOAM: The Open Source CFD Toolbox           |
|  \\    /   O peration     | Version:  2306                                  |
|   \\  /    A nd           | Website:  www.openfoam.com                      |
|    \\/     M anipulation  |                                                 |
\*---------------------------------------------------------------------------*/
FoamFile
{
    version     2.0;
    format      ascii;
    arch        "LSB;label=32;scalar=64";
    class       volScalarField;
    location    "500";
    object      nut;
}
// * * * * * * * * * * * * * * * * * * * * * * * * * * * * * * * * * * * * * //

dimensions      [0 2 -1 0 0 0 0];

internalField   nonuniform List<scalar> 
25600
(
9.41057e-07
1.38898e-06
1.70585e-06
1.90292e-06
2.00774e-06
2.04801e-06
2.04579e-06
2.01692e-06
1.97215e-06
1.91842e-06
1.86007e-06
1.79979e-06
1.65904e-06
1.51774e-06
1.39521e-06
1.28912e-06
1.19807e-06
1.11941e-06
1.05054e-06
9.9009e-07
9.37522e-07
8.92862e-07
8.55421e-07
8.24622e-07
7.99891e-07
7.87899e-07
7.79856e-07
7.73836e-07
7.69714e-07
7.6729e-07
7.66312e-07
7.66531e-07
7.67721e-07
7.70691e-07
7.79739e-07
7.90282e-07
8.02149e-07
8.14532e-07
8.31976e-07
8.39551e-07
8.16569e-06
4.02232e-06
2.90811e-06
2.41348e-06
2.14728e-06
1.98716e-06
1.88281e-06
1.81081e-06
1.75972e-06
1.7241e-06
1.70169e-06
1.69237e-06
1.69598e-06
1.71382e-06
1.74893e-06
1.80372e-06
1.88311e-06
1.90454e-06
1.89297e-06
1.89393e-06
1.91939e-06
1.97951e-06
2.03708e-06
2.09356e-06
2.15038e-06
2.20872e-06
2.26939e-06
2.33262e-06
2.398e-06
2.46506e-06
2.53326e-06
2.6021e-06
2.67113e-06
2.74002e-06
2.80858e-06
2.87671e-06
2.94388e-06
3.00836e-06
3.08094e-06
3.12089e-06
2.25871e-05
1.7589e-05
1.33179e-05
1.04412e-05
8.52247e-06
7.19679e-06
6.2445e-06
5.53615e-06
4.99328e-06
4.56712e-06
4.22671e-06
3.95134e-06
3.72748e-06
3.54414e-06
3.38557e-06
3.24241e-06
3.11741e-06
3.01629e-06
2.93657e-06
2.87324e-06
2.82375e-06
2.78966e-06
2.77272e-06
2.77337e-06
2.79396e-06
2.83788e-06
2.90486e-06
2.98194e-06
3.04682e-06
3.11127e-06
3.17816e-06
3.24782e-06
3.32058e-06
3.39638e-06
3.47474e-06
3.55539e-06
3.63916e-06
3.72599e-06
3.8199e-06
3.91473e-06
2.34718e-05
2.30283e-05
2.18591e-05
2.02391e-05
1.84953e-05
1.68264e-05
1.532e-05
1.39988e-05
1.28548e-05
1.18677e-05
1.10139e-05
1.02733e-05
9.62814e-06
9.06049e-06
8.54432e-06
8.06139e-06
7.60747e-06
7.18732e-06
6.80406e-06
6.45714e-06
6.14401e-06
5.86238e-06
5.61046e-06
5.39046e-06
5.18929e-06
4.97568e-06
4.76336e-06
4.57294e-06
4.41362e-06
4.28661e-06
4.18999e-06
4.12176e-06
4.07734e-06
4.05286e-06
4.05032e-06
4.06832e-06
4.10261e-06
4.14964e-06
4.20567e-06
4.27248e-06
2.34199e-05
2.33648e-05
2.31905e-05
2.28282e-05
2.22725e-05
2.1561e-05
2.07474e-05
1.9883e-05
1.9008e-05
1.81503e-05
1.7327e-05
1.65478e-05
1.58171e-05
1.51359e-05
1.45007e-05
1.39054e-05
1.33442e-05
1.28122e-05
1.23086e-05
1.18329e-05
1.13842e-05
1.09616e-05
1.05631e-05
1.01906e-05
9.83123e-06
9.45518e-06
9.06996e-06
8.69225e-06
8.33333e-06
7.99936e-06
7.69329e-06
7.41617e-06
7.1683e-06
6.94728e-06
6.73e-06
6.51099e-06
6.30181e-06
6.114e-06
5.95078e-06
5.82311e-06
2.34109e-05
2.33612e-05
2.33021e-05
2.32094e-05
2.30595e-05
2.28372e-05
2.25388e-05
2.217e-05
2.17429e-05
2.12717e-05
2.07706e-05
2.02519e-05
1.97262e-05
1.92019e-05
1.86852e-05
1.81801e-05
1.7689e-05
1.72126e-05
1.67511e-05
1.63049e-05
1.58741e-05
1.5459e-05
1.50593e-05
1.46753e-05
1.43062e-05
1.39463e-05
1.35906e-05
1.32374e-05
1.28874e-05
1.25423e-05
1.22044e-05
1.18759e-05
1.15591e-05
1.12547e-05
1.09438e-05
1.06209e-05
1.02954e-05
9.97947e-06
9.6819e-06
9.41201e-06
2.34101e-05
2.33569e-05
2.33047e-05
2.32493e-05
2.31838e-05
2.30996e-05
2.29889e-05
2.28459e-05
2.26681e-05
2.24555e-05
2.22107e-05
2.19374e-05
2.16403e-05
2.13244e-05
2.09945e-05
2.0655e-05
2.03098e-05
1.9962e-05
1.9614e-05
1.92677e-05
1.89248e-05
1.85866e-05
1.82542e-05
1.79284e-05
1.76099e-05
1.72987e-05
1.6994e-05
1.66946e-05
1.63993e-05
1.61073e-05
1.58184e-05
1.55328e-05
1.52508e-05
1.49736e-05
1.46997e-05
1.44264e-05
1.41526e-05
1.38795e-05
1.36107e-05
1.33473e-05
2.34099e-05
2.33559e-05
2.3303e-05
2.32507e-05
2.31979e-05
2.31422e-05
2.30804e-05
2.30091e-05
2.29248e-05
2.28252e-05
2.27084e-05
2.25736e-05
2.24211e-05
2.22517e-05
2.20666e-05
2.18677e-05
2.1657e-05
2.14363e-05
2.12077e-05
2.09729e-05
2.07336e-05
2.04913e-05
2.02474e-05
2.0003e-05
1.97591e-05
1.95167e-05
1.92762e-05
1.9038e-05
1.8802e-05
1.85681e-05
1.83362e-05
1.8106e-05
1.78777e-05
1.76513e-05
1.74271e-05
1.72049e-05
1.69847e-05
1.67664e-05
1.65508e-05
1.63385e-05
2.34098e-05
2.33554e-05
2.33021e-05
2.32497e-05
2.31981e-05
2.31468e-05
2.30951e-05
2.30415e-05
2.29848e-05
2.29232e-05
2.28553e-05
2.27797e-05
2.26954e-05
2.26016e-05
2.24982e-05
2.23849e-05
2.22621e-05
2.21303e-05
2.19903e-05
2.18427e-05
2.16884e-05
2.15285e-05
2.13637e-05
2.1195e-05
2.10233e-05
2.08492e-05
2.06735e-05
2.04968e-05
2.03195e-05
2.0142e-05
1.99645e-05
1.97872e-05
1.96102e-05
1.94338e-05
1.92581e-05
1.90834e-05
1.89101e-05
1.87384e-05
1.85689e-05
1.84023e-05
2.34098e-05
2.33552e-05
2.33016e-05
2.32489e-05
2.31972e-05
2.31464e-05
2.30962e-05
2.30463e-05
2.29962e-05
2.29453e-05
2.28928e-05
2.2838e-05
2.278e-05
2.27183e-05
2.2652e-05
2.25809e-05
2.25044e-05
2.24224e-05
2.23348e-05
2.22418e-05
2.21434e-05
2.204e-05
2.19319e-05
2.18195e-05
2.17032e-05
2.15835e-05
2.14609e-05
2.13358e-05
2.12085e-05
2.10795e-05
2.0949e-05
2.08175e-05
2.0685e-05
2.0552e-05
2.04185e-05
2.0285e-05
2.01518e-05
2.00191e-05
1.98877e-05
1.9758e-05
2.34097e-05
2.3355e-05
2.33012e-05
2.32484e-05
2.31966e-05
2.31457e-05
2.30956e-05
2.30462e-05
2.29975e-05
2.29491e-05
2.29008e-05
2.28523e-05
2.28032e-05
2.27531e-05
2.27015e-05
2.2648e-05
2.25924e-05
2.25341e-05
2.24731e-05
2.2409e-05
2.23418e-05
2.22714e-05
2.21977e-05
2.21209e-05
2.20411e-05
2.19583e-05
2.18728e-05
2.17848e-05
2.16945e-05
2.16021e-05
2.15078e-05
2.14119e-05
2.13145e-05
2.12159e-05
2.11163e-05
2.1016e-05
2.09151e-05
2.08141e-05
2.07134e-05
2.06133e-05
2.34097e-05
2.33549e-05
2.3301e-05
2.32482e-05
2.31962e-05
2.31452e-05
2.30951e-05
2.30459e-05
2.29974e-05
2.29495e-05
2.29023e-05
2.28556e-05
2.28091e-05
2.27628e-05
2.27164e-05
2.26697e-05
2.26223e-05
2.25742e-05
2.25251e-05
2.24747e-05
2.24228e-05
2.23694e-05
2.23143e-05
2.22574e-05
2.21986e-05
2.2138e-05
2.20755e-05
2.20111e-05
2.1945e-05
2.18772e-05
2.18078e-05
2.17369e-05
2.16646e-05
2.15911e-05
2.15164e-05
2.14408e-05
2.13644e-05
2.12874e-05
2.12102e-05
2.11329e-05
2.34097e-05
2.33549e-05
2.33011e-05
2.32483e-05
2.31964e-05
2.31455e-05
2.30955e-05
2.30463e-05
2.2998e-05
2.29504e-05
2.29036e-05
2.28574e-05
2.28119e-05
2.27668e-05
2.27222e-05
2.26779e-05
2.26338e-05
2.25897e-05
2.25455e-05
2.2501e-05
2.24561e-05
2.24108e-05
2.23647e-05
2.23179e-05
2.22703e-05
2.22217e-05
2.21721e-05
2.21214e-05
2.20697e-05
2.20169e-05
2.19631e-05
2.19082e-05
2.18523e-05
2.17954e-05
2.17377e-05
2.16791e-05
2.16198e-05
2.15599e-05
2.14995e-05
2.14388e-05
2.34098e-05
2.33553e-05
2.33018e-05
2.32493e-05
2.31978e-05
2.31473e-05
2.30976e-05
2.30488e-05
2.30008e-05
2.29536e-05
2.29071e-05
2.28614e-05
2.28163e-05
2.27719e-05
2.27281e-05
2.26848e-05
2.2642e-05
2.25996e-05
2.25574e-05
2.25155e-05
2.24737e-05
2.24319e-05
2.23901e-05
2.23481e-05
2.23059e-05
2.22634e-05
2.22206e-05
2.21773e-05
2.21335e-05
2.20892e-05
2.20443e-05
2.19989e-05
2.19529e-05
2.19064e-05
2.18592e-05
2.18116e-05
2.17634e-05
2.17148e-05
2.16658e-05
2.16165e-05
2.34103e-05
2.33566e-05
2.33039e-05
2.32523e-05
2.32015e-05
2.31517e-05
2.31027e-05
2.30546e-05
2.30073e-05
2.29607e-05
2.29149e-05
2.28697e-05
2.28252e-05
2.27814e-05
2.27382e-05
2.26956e-05
2.26535e-05
2.26119e-05
2.25708e-05
2.253e-05
2.24896e-05
2.24495e-05
2.24096e-05
2.23699e-05
2.23303e-05
2.22908e-05
2.22512e-05
2.22116e-05
2.21719e-05
2.21321e-05
2.20921e-05
2.20519e-05
2.20115e-05
2.19708e-05
2.19299e-05
2.18888e-05
2.18474e-05
2.18057e-05
2.17638e-05
2.17218e-05
2.34111e-05
2.33591e-05
2.33079e-05
2.32576e-05
2.32082e-05
2.31597e-05
2.31119e-05
2.30649e-05
2.30186e-05
2.2973e-05
2.29281e-05
2.28837e-05
2.28401e-05
2.2797e-05
2.27544e-05
2.27125e-05
2.2671e-05
2.26301e-05
2.25896e-05
2.25495e-05
2.25099e-05
2.24706e-05
2.24317e-05
2.2393e-05
2.23546e-05
2.23164e-05
2.22784e-05
2.22406e-05
2.22029e-05
2.21653e-05
2.21277e-05
2.20902e-05
2.20527e-05
2.20152e-05
2.19776e-05
2.19401e-05
2.19024e-05
2.18648e-05
2.18271e-05
2.17893e-05
2.34123e-05
2.33625e-05
2.33135e-05
2.32653e-05
2.32178e-05
2.3171e-05
2.31248e-05
2.30793e-05
2.30344e-05
2.29901e-05
2.29463e-05
2.29031e-05
2.28604e-05
2.28182e-05
2.27765e-05
2.27352e-05
2.26944e-05
2.26541e-05
2.26142e-05
2.25747e-05
2.25355e-05
2.24967e-05
2.24583e-05
2.24202e-05
2.23824e-05
2.23448e-05
2.23075e-05
2.22705e-05
2.22337e-05
2.2197e-05
2.21606e-05
2.21243e-05
2.20881e-05
2.20521e-05
2.20162e-05
2.19805e-05
2.19448e-05
2.19092e-05
2.18736e-05
2.18381e-05
2.34137e-05
2.33666e-05
2.33201e-05
2.32742e-05
2.32289e-05
2.31841e-05
2.31398e-05
2.3096e-05
2.30527e-05
2.30098e-05
2.29673e-05
2.29252e-05
2.28835e-05
2.28423e-05
2.28014e-05
2.27609e-05
2.27208e-05
2.2681e-05
2.26416e-05
2.26026e-05
2.25638e-05
2.25254e-05
2.24873e-05
2.24495e-05
2.2412e-05
2.23748e-05
2.23378e-05
2.2301e-05
2.22646e-05
2.22283e-05
2.21923e-05
2.21565e-05
2.21209e-05
2.20855e-05
2.20503e-05
2.20153e-05
2.19804e-05
2.19457e-05
2.19112e-05
2.18767e-05
2.34151e-05
2.33707e-05
2.33266e-05
2.3283e-05
2.32397e-05
2.31968e-05
2.31542e-05
2.31119e-05
2.30699e-05
2.30282e-05
2.29868e-05
2.29458e-05
2.2905e-05
2.28645e-05
2.28243e-05
2.27845e-05
2.27449e-05
2.27056e-05
2.26666e-05
2.26279e-05
2.25895e-05
2.25514e-05
2.25135e-05
2.24759e-05
2.24385e-05
2.24014e-05
2.23645e-05
2.23279e-05
2.22915e-05
2.22554e-05
2.22195e-05
2.21838e-05
2.21484e-05
2.21131e-05
2.20782e-05
2.20434e-05
2.20088e-05
2.19744e-05
2.19402e-05
2.19061e-05
2.34163e-05
2.3374e-05
2.33317e-05
2.32895e-05
2.32475e-05
2.32057e-05
2.31641e-05
2.31227e-05
2.30815e-05
2.30405e-05
2.29998e-05
2.29593e-05
2.2919e-05
2.2879e-05
2.28392e-05
2.27996e-05
2.27604e-05
2.27214e-05
2.26826e-05
2.26441e-05
2.26058e-05
2.25678e-05
2.253e-05
2.24925e-05
2.24552e-05
2.24181e-05
2.23813e-05
2.23447e-05
2.23083e-05
2.22722e-05
2.22363e-05
2.22006e-05
2.21651e-05
2.21299e-05
2.2095e-05
2.20602e-05
2.20256e-05
2.19912e-05
2.19571e-05
2.1923e-05
2.34163e-05
2.3374e-05
2.33317e-05
2.32895e-05
2.32475e-05
2.32057e-05
2.31641e-05
2.31227e-05
2.30815e-05
2.30405e-05
2.29998e-05
2.29593e-05
2.2919e-05
2.2879e-05
2.28392e-05
2.27996e-05
2.27604e-05
2.27214e-05
2.26826e-05
2.26441e-05
2.26058e-05
2.25678e-05
2.253e-05
2.24925e-05
2.24552e-05
2.24181e-05
2.23812e-05
2.23446e-05
2.23082e-05
2.22721e-05
2.22362e-05
2.22005e-05
2.2165e-05
2.21298e-05
2.20948e-05
2.20599e-05
2.20253e-05
2.19908e-05
2.19565e-05
2.19224e-05
2.34151e-05
2.33707e-05
2.33266e-05
2.3283e-05
2.32397e-05
2.31968e-05
2.31542e-05
2.31119e-05
2.30699e-05
2.30282e-05
2.29868e-05
2.29458e-05
2.2905e-05
2.28645e-05
2.28243e-05
2.27845e-05
2.27449e-05
2.27056e-05
2.26666e-05
2.26279e-05
2.25895e-05
2.25513e-05
2.25135e-05
2.24758e-05
2.24385e-05
2.24013e-05
2.23644e-05
2.23278e-05
2.22914e-05
2.22552e-05
2.22193e-05
2.21835e-05
2.2148e-05
2.21127e-05
2.20776e-05
2.20427e-05
2.20079e-05
2.19733e-05
2.19388e-05
2.19044e-05
2.34137e-05
2.33666e-05
2.33201e-05
2.32742e-05
2.32289e-05
2.31841e-05
2.31398e-05
2.3096e-05
2.30527e-05
2.30098e-05
2.29673e-05
2.29252e-05
2.28835e-05
2.28423e-05
2.28014e-05
2.27609e-05
2.27208e-05
2.2681e-05
2.26416e-05
2.26026e-05
2.25638e-05
2.25254e-05
2.24873e-05
2.24495e-05
2.24119e-05
2.23747e-05
2.23377e-05
2.23009e-05
2.22644e-05
2.22281e-05
2.2192e-05
2.21561e-05
2.21204e-05
2.20849e-05
2.20495e-05
2.20142e-05
2.19791e-05
2.19441e-05
2.19091e-05
2.18741e-05
2.34123e-05
2.33625e-05
2.33135e-05
2.32653e-05
2.32178e-05
2.3171e-05
2.31248e-05
2.30793e-05
2.30344e-05
2.29901e-05
2.29463e-05
2.29031e-05
2.28604e-05
2.28182e-05
2.27765e-05
2.27352e-05
2.26944e-05
2.26541e-05
2.26142e-05
2.25746e-05
2.25355e-05
2.24967e-05
2.24583e-05
2.24201e-05
2.23823e-05
2.23447e-05
2.23074e-05
2.22703e-05
2.22334e-05
2.21967e-05
2.21602e-05
2.21238e-05
2.20875e-05
2.20514e-05
2.20153e-05
2.19792e-05
2.19431e-05
2.1907e-05
2.18709e-05
2.18347e-05
2.34111e-05
2.33591e-05
2.33079e-05
2.32576e-05
2.32082e-05
2.31597e-05
2.31119e-05
2.30649e-05
2.30186e-05
2.2973e-05
2.2928e-05
2.28837e-05
2.28401e-05
2.2797e-05
2.27544e-05
2.27125e-05
2.2671e-05
2.26301e-05
2.25896e-05
2.25495e-05
2.25099e-05
2.24706e-05
2.24316e-05
2.23929e-05
2.23545e-05
2.23163e-05
2.22783e-05
2.22404e-05
2.22026e-05
2.21649e-05
2.21273e-05
2.20896e-05
2.2052e-05
2.20142e-05
2.19764e-05
2.19385e-05
2.19004e-05
2.18621e-05
2.18236e-05
2.17848e-05
2.34103e-05
2.33566e-05
2.33039e-05
2.32523e-05
2.32015e-05
2.31517e-05
2.31027e-05
2.30546e-05
2.30073e-05
2.29607e-05
2.29149e-05
2.28697e-05
2.28252e-05
2.27814e-05
2.27382e-05
2.26956e-05
2.26535e-05
2.26119e-05
2.25708e-05
2.253e-05
2.24896e-05
2.24495e-05
2.24096e-05
2.23699e-05
2.23302e-05
2.22906e-05
2.2251e-05
2.22114e-05
2.21716e-05
2.21317e-05
2.20916e-05
2.20513e-05
2.20106e-05
2.19697e-05
2.19284e-05
2.18868e-05
2.18447e-05
2.18022e-05
2.17592e-05
2.17158e-05
2.34098e-05
2.33553e-05
2.33018e-05
2.32493e-05
2.31978e-05
2.31473e-05
2.30976e-05
2.30488e-05
2.30008e-05
2.29536e-05
2.29071e-05
2.28614e-05
2.28163e-05
2.27719e-05
2.27281e-05
2.26848e-05
2.2642e-05
2.25995e-05
2.25574e-05
2.25155e-05
2.24737e-05
2.24319e-05
2.23901e-05
2.23481e-05
2.23058e-05
2.22633e-05
2.22204e-05
2.2177e-05
2.21331e-05
2.20887e-05
2.20437e-05
2.19981e-05
2.19518e-05
2.19049e-05
2.18572e-05
2.18088e-05
2.17597e-05
2.17098e-05
2.16592e-05
2.16077e-05
2.34097e-05
2.33549e-05
2.33011e-05
2.32483e-05
2.31964e-05
2.31455e-05
2.30955e-05
2.30463e-05
2.2998e-05
2.29504e-05
2.29036e-05
2.28574e-05
2.28119e-05
2.27668e-05
2.27222e-05
2.26779e-05
2.26338e-05
2.25896e-05
2.25454e-05
2.2501e-05
2.24561e-05
2.24107e-05
2.23647e-05
2.23178e-05
2.22701e-05
2.22215e-05
2.21718e-05
2.21211e-05
2.20693e-05
2.20163e-05
2.19622e-05
2.1907e-05
2.18507e-05
2.17932e-05
2.17347e-05
2.1675e-05
2.16142e-05
2.15524e-05
2.14894e-05
2.14254e-05
2.34097e-05
2.33549e-05
2.3301e-05
2.32482e-05
2.31962e-05
2.31452e-05
2.30951e-05
2.30459e-05
2.29974e-05
2.29495e-05
2.29023e-05
2.28556e-05
2.28091e-05
2.27628e-05
2.27164e-05
2.26696e-05
2.26223e-05
2.25742e-05
2.2525e-05
2.24746e-05
2.24228e-05
2.23694e-05
2.23142e-05
2.22573e-05
2.21984e-05
2.21377e-05
2.20751e-05
2.20106e-05
2.19443e-05
2.18763e-05
2.18065e-05
2.17351e-05
2.16621e-05
2.15876e-05
2.15117e-05
2.14344e-05
2.13557e-05
2.12757e-05
2.11944e-05
2.11118e-05
2.34097e-05
2.3355e-05
2.33012e-05
2.32484e-05
2.31966e-05
2.31457e-05
2.30956e-05
2.30462e-05
2.29975e-05
2.29491e-05
2.29008e-05
2.28523e-05
2.28032e-05
2.27531e-05
2.27015e-05
2.2648e-05
2.25923e-05
2.25341e-05
2.24731e-05
2.2409e-05
2.23417e-05
2.22713e-05
2.21976e-05
2.21207e-05
2.20408e-05
2.19579e-05
2.18723e-05
2.1784e-05
2.16934e-05
2.16005e-05
2.15057e-05
2.14089e-05
2.13105e-05
2.12104e-05
2.11089e-05
2.10059e-05
2.09016e-05
2.07959e-05
2.06889e-05
2.05807e-05
2.34098e-05
2.33552e-05
2.33016e-05
2.32489e-05
2.31972e-05
2.31464e-05
2.30962e-05
2.30463e-05
2.29962e-05
2.29453e-05
2.28928e-05
2.2838e-05
2.278e-05
2.27183e-05
2.2652e-05
2.25809e-05
2.25044e-05
2.24224e-05
2.23348e-05
2.22417e-05
2.21433e-05
2.20398e-05
2.19316e-05
2.18191e-05
2.17027e-05
2.15828e-05
2.146e-05
2.13344e-05
2.12067e-05
2.1077e-05
2.09456e-05
2.08128e-05
2.06787e-05
2.05435e-05
2.04071e-05
2.02698e-05
2.01313e-05
1.99918e-05
1.98512e-05
1.97094e-05
2.34098e-05
2.33554e-05
2.33021e-05
2.32497e-05
2.31981e-05
2.31468e-05
2.30951e-05
2.30415e-05
2.29848e-05
2.29232e-05
2.28553e-05
2.27797e-05
2.26954e-05
2.26016e-05
2.24981e-05
2.23849e-05
2.22621e-05
2.21303e-05
2.19902e-05
2.18425e-05
2.16882e-05
2.15282e-05
2.13633e-05
2.11945e-05
2.10225e-05
2.08481e-05
2.0672e-05
2.04947e-05
2.03166e-05
2.01381e-05
1.99593e-05
1.97802e-05
1.96009e-05
1.94214e-05
1.92416e-05
1.90615e-05
1.8881e-05
1.86996e-05
1.85172e-05
1.83335e-05
2.34099e-05
2.33559e-05
2.3303e-05
2.32507e-05
2.31979e-05
2.31422e-05
2.30804e-05
2.30091e-05
2.29248e-05
2.28252e-05
2.27084e-05
2.25736e-05
2.24211e-05
2.22517e-05
2.20666e-05
2.18677e-05
2.16569e-05
2.14362e-05
2.12075e-05
2.09727e-05
2.07333e-05
2.04908e-05
2.02467e-05
2.00021e-05
1.97579e-05
1.9515e-05
1.92739e-05
1.90349e-05
1.87979e-05
1.85627e-05
1.8329e-05
1.80965e-05
1.7865e-05
1.76345e-05
1.74049e-05
1.71756e-05
1.69458e-05
1.67146e-05
1.64814e-05
1.6246e-05
2.34101e-05
2.33569e-05
2.33047e-05
2.32493e-05
2.31838e-05
2.30996e-05
2.29889e-05
2.28459e-05
2.26681e-05
2.24555e-05
2.22107e-05
2.19374e-05
2.16403e-05
2.13244e-05
2.09945e-05
2.0655e-05
2.03097e-05
1.99618e-05
1.96137e-05
1.92674e-05
1.89243e-05
1.8586e-05
1.82533e-05
1.79272e-05
1.76082e-05
1.72965e-05
1.6991e-05
1.66906e-05
1.6394e-05
1.61004e-05
1.58092e-05
1.55206e-05
1.52348e-05
1.49525e-05
1.46714e-05
1.43882e-05
1.41009e-05
1.38096e-05
1.35157e-05
1.32211e-05
2.34109e-05
2.33612e-05
2.33021e-05
2.32094e-05
2.30595e-05
2.28372e-05
2.25388e-05
2.217e-05
2.17429e-05
2.12717e-05
2.07705e-05
2.02519e-05
1.97262e-05
1.92019e-05
1.86851e-05
1.818e-05
1.76889e-05
1.72124e-05
1.67508e-05
1.63044e-05
1.58735e-05
1.54582e-05
1.50582e-05
1.46739e-05
1.43042e-05
1.39435e-05
1.35869e-05
1.32325e-05
1.28807e-05
1.25334e-05
1.21926e-05
1.18604e-05
1.15389e-05
1.12272e-05
1.09045e-05
1.05664e-05
1.02228e-05
9.88433e-06
9.5585e-06
9.24967e-06
2.34199e-05
2.33648e-05
2.31905e-05
2.28282e-05
2.22725e-05
2.1561e-05
2.07474e-05
1.9883e-05
1.9008e-05
1.81503e-05
1.7327e-05
1.65478e-05
1.58171e-05
1.51358e-05
1.45006e-05
1.39053e-05
1.33439e-05
1.28119e-05
1.23082e-05
1.18323e-05
1.13834e-05
1.09606e-05
1.05618e-05
1.01889e-05
9.82872e-06
9.45152e-06
9.065e-06
8.68579e-06
8.32506e-06
7.98886e-06
7.68006e-06
7.39956e-06
7.14775e-06
6.92056e-06
6.69339e-06
6.46343e-06
6.24359e-06
6.04406e-06
5.86949e-06
5.72059e-06
2.34718e-05
2.30283e-05
2.18591e-05
2.02391e-05
1.84953e-05
1.68264e-05
1.532e-05
1.39988e-05
1.28548e-05
1.18677e-05
1.10138e-05
1.02732e-05
9.62808e-06
9.06039e-06
8.54419e-06
8.06119e-06
7.60722e-06
7.18698e-06
6.80362e-06
6.45657e-06
6.14328e-06
5.86144e-06
5.60927e-06
5.38901e-06
5.18723e-06
4.97282e-06
4.75986e-06
4.56896e-06
4.40924e-06
4.2819e-06
4.18504e-06
4.11679e-06
4.07222e-06
4.048e-06
4.0465e-06
4.06593e-06
4.10212e-06
4.15174e-06
4.21305e-06
4.28371e-06
2.25871e-05
1.7589e-05
1.33179e-05
1.04412e-05
8.52246e-06
7.19678e-06
6.24449e-06
5.53614e-06
4.99326e-06
4.56709e-06
4.22669e-06
3.9513e-06
3.72743e-06
3.54408e-06
3.38549e-06
3.24232e-06
3.1173e-06
3.01617e-06
2.93643e-06
2.87308e-06
2.82358e-06
2.78949e-06
2.77257e-06
2.77325e-06
2.79395e-06
2.83806e-06
2.90519e-06
2.98248e-06
3.04685e-06
3.11133e-06
3.17832e-06
3.24818e-06
3.32129e-06
3.39754e-06
3.47677e-06
3.55858e-06
3.64283e-06
3.72938e-06
3.81813e-06
3.90883e-06
8.16569e-06
4.02232e-06
2.90811e-06
2.41348e-06
2.14728e-06
1.98716e-06
1.88281e-06
1.81081e-06
1.75972e-06
1.7241e-06
1.70169e-06
1.69237e-06
1.69598e-06
1.71382e-06
1.74894e-06
1.80373e-06
1.88313e-06
1.90451e-06
1.89292e-06
1.89386e-06
1.91932e-06
1.97938e-06
2.03687e-06
2.09325e-06
2.14993e-06
2.20809e-06
2.26855e-06
2.33149e-06
2.39647e-06
2.46296e-06
2.53039e-06
2.59817e-06
2.66577e-06
2.73264e-06
2.79833e-06
2.86254e-06
2.92488e-06
2.98501e-06
3.04264e-06
3.09739e-06
9.41057e-07
1.38898e-06
1.70585e-06
1.90292e-06
2.00774e-06
2.04801e-06
2.04579e-06
2.01692e-06
1.97215e-06
1.91842e-06
1.86007e-06
1.79978e-06
1.65901e-06
1.51771e-06
1.39516e-06
1.28906e-06
1.19799e-06
1.1193e-06
1.0504e-06
9.89896e-07
9.37265e-07
8.92523e-07
8.54974e-07
8.24037e-07
7.99121e-07
7.87635e-07
7.79508e-07
7.73386e-07
7.69135e-07
7.66543e-07
7.65351e-07
7.65295e-07
7.66128e-07
7.6763e-07
7.69947e-07
7.77181e-07
7.8483e-07
7.92649e-07
8.0042e-07
8.07952e-07
1.53301e-06
2.72646e-06
4.9884e-06
7.99566e-06
1.11372e-05
1.40534e-05
1.6704e-05
1.91809e-05
2.15632e-05
2.38873e-05
2.61688e-05
2.84215e-05
3.06609e-05
3.29054e-05
3.51767e-05
3.7501e-05
3.9908e-05
4.24283e-05
4.50907e-05
4.7918e-05
5.09263e-05
5.41244e-05
5.75123e-05
6.10778e-05
6.47971e-05
6.86354e-05
7.25509e-05
7.64913e-05
8.04001e-05
8.42214e-05
8.79003e-05
9.13902e-05
9.46569e-05
9.76775e-05
0.000100439
0.000102933
0.000105163
0.000107132
0.000108841
0.000110283
0.000111447
0.000112311
0.000112855
0.000113059
0.000112907
0.000112389
0.0001115
0.000110243
0.000108625
0.000106659
0.000104358
0.000101738
9.8817e-05
9.56177e-05
9.2166e-05
8.84889e-05
8.46151e-05
8.05728e-05
7.6391e-05
7.21018e-05
6.77381e-05
6.33315e-05
5.89141e-05
5.45194e-05
5.01834e-05
4.59434e-05
4.18452e-05
3.79367e-05
3.4273e-05
3.09151e-05
2.79295e-05
2.53807e-05
2.33211e-05
2.1783e-05
2.07665e-05
2.02273e-05
2.00674e-05
2.01381e-05
2.02631e-05
2.02818e-05
2.00777e-05
1.95888e-05
1.88168e-05
1.78042e-05
1.65458e-05
1.48573e-05
1.2554e-05
1.05329e-05
1.09521e-05
1.46914e-05
2.07643e-05
2.76664e-05
3.41386e-05
3.94526e-05
4.34312e-05
4.6249e-05
4.82175e-05
4.9641e-05
5.07518e-05
5.17007e-05
5.25742e-05
5.34155e-05
5.42355e-05
5.50007e-05
5.56353e-05
5.60824e-05
5.6333e-05
5.642e-05
5.63917e-05
5.6291e-05
5.61456e-05
5.59672e-05
5.57548e-05
5.54971e-05
5.5174e-05
5.47592e-05
5.42264e-05
5.25318e-05
4.9149e-05
4.52625e-05
4.05944e-05
3.56889e-05
3.16141e-05
2.9225e-05
2.86047e-05
2.90751e-05
2.95079e-05
3.01931e-05
3.10627e-05
3.11999e-05
2.92473e-05
2.66238e-05
2.83575e-05
3.77452e-05
3.86799e-05
4.03608e-05
4.23667e-05
4.43182e-05
4.42536e-05
4.47123e-05
4.75653e-05
4.81607e-05
4.80385e-05
4.7674e-05
4.71556e-05
4.65503e-05
4.59047e-05
4.5248e-05
4.45967e-05
4.3958e-05
4.33334e-05
4.27213e-05
4.21185e-05
4.15214e-05
4.0927e-05
4.03331e-05
3.97386e-05
3.91435e-05
3.85492e-05
3.79579e-05
3.73725e-05
3.67966e-05
3.62341e-05
3.56888e-05
3.51649e-05
3.46695e-05
3.42084e-05
3.37831e-05
3.33922e-05
3.30329e-05
3.27013e-05
3.23931e-05
3.21042e-05
3.18311e-05
3.1571e-05
3.13219e-05
3.10822e-05
3.08507e-05
3.06267e-05
3.04095e-05
3.01983e-05
2.99928e-05
2.97924e-05
2.95966e-05
2.94052e-05
2.92178e-05
2.90341e-05
2.88538e-05
2.86764e-05
2.85017e-05
2.83296e-05
2.81612e-05
2.79971e-05
2.78375e-05
2.76823e-05
2.75313e-05
2.73842e-05
2.72405e-05
2.70994e-05
2.69601e-05
2.68216e-05
2.6683e-05
2.65433e-05
2.6402e-05
2.62584e-05
2.61126e-05
2.59645e-05
2.58146e-05
2.56636e-05
2.55123e-05
2.53616e-05
2.52126e-05
2.50662e-05
2.49244e-05
2.47889e-05
2.466e-05
2.45378e-05
2.44219e-05
2.43118e-05
2.4208e-05
2.41124e-05
2.40286e-05
2.39618e-05
2.39176e-05
2.39003e-05
2.39111e-05
2.39471e-05
2.40016e-05
2.40651e-05
2.41277e-05
2.41808e-05
2.4219e-05
2.42407e-05
2.29305e-05
2.14947e-05
2.05771e-05
2.01033e-05
2.00282e-05
2.02981e-05
2.07935e-05
2.12752e-05
2.13262e-05
2.0379e-05
1.78645e-05
1.39857e-05
1.0568e-05
9.46513e-06
1.08479e-05
1.55843e-05
2.33049e-05
2.44429e-05
2.44569e-05
2.44857e-05
2.45191e-05
2.45512e-05
2.45798e-05
2.46044e-05
2.46255e-05
2.46434e-05
2.46588e-05
2.46724e-05
2.46847e-05
2.46963e-05
2.47079e-05
2.472e-05
2.47328e-05
2.47469e-05
2.47624e-05
2.47797e-05
2.47987e-05
2.48196e-05
2.48423e-05
2.48668e-05
2.48929e-05
2.49203e-05
2.49487e-05
2.49779e-05
2.50074e-05
2.5037e-05
2.50663e-05
2.5095e-05
2.51231e-05
2.51503e-05
2.51768e-05
2.52027e-05
2.52283e-05
2.52538e-05
2.52796e-05
2.53059e-05
2.53332e-05
2.53615e-05
2.53909e-05
2.54216e-05
2.54534e-05
2.54861e-05
2.55195e-05
2.55526e-05
2.5586e-05
2.56164e-05
2.56561e-05
3.64601e-06
4.25236e-06
5.02615e-06
6.17656e-06
7.79721e-06
9.84925e-06
1.21795e-05
1.46125e-05
1.70293e-05
1.93866e-05
2.16883e-05
2.395e-05
2.61826e-05
2.83947e-05
3.06e-05
3.28191e-05
3.50764e-05
3.73983e-05
3.98113e-05
4.2341e-05
4.50098e-05
4.78357e-05
5.08308e-05
5.3999e-05
5.73341e-05
6.08193e-05
6.44278e-05
6.81218e-05
7.18539e-05
7.55709e-05
7.92171e-05
8.27392e-05
8.60908e-05
8.92351e-05
9.21447e-05
9.48009e-05
9.71941e-05
9.93193e-05
0.000101173
0.000102747
0.000104032
0.00010501
0.000105664
0.000105977
0.000105933
0.000105523
0.000104744
0.000103597
0.000102089
0.000100231
9.80373e-05
9.55238e-05
9.27091e-05
8.96156e-05
8.6268e-05
8.26933e-05
7.89202e-05
7.49776e-05
7.08961e-05
6.67085e-05
6.24484e-05
5.81506e-05
5.38501e-05
4.95852e-05
4.53977e-05
4.13358e-05
3.74496e-05
3.37974e-05
3.0445e-05
2.74633e-05
2.49201e-05
2.28712e-05
2.13494e-05
2.03553e-05
1.98439e-05
1.97174e-05
1.98301e-05
2.00127e-05
2.01081e-05
1.99943e-05
1.95971e-05
1.89002e-05
1.79365e-05
1.67376e-05
1.52167e-05
1.31456e-05
1.08614e-05
1.02548e-05
1.30807e-05
1.90135e-05
2.65601e-05
3.41705e-05
4.07534e-05
4.585e-05
4.94919e-05
5.19756e-05
5.36551e-05
5.48293e-05
5.5706e-05
5.64083e-05
5.70003e-05
5.75101e-05
5.79428e-05
5.82778e-05
5.84845e-05
5.85508e-05
5.84918e-05
5.83394e-05
5.81269e-05
5.78779e-05
5.76036e-05
5.73044e-05
5.6973e-05
5.65954e-05
5.61506e-05
5.56122e-05
5.49567e-05
5.28947e-05
4.94254e-05
4.52843e-05
4.01827e-05
3.48545e-05
3.06075e-05
2.82775e-05
2.7823e-05
2.90737e-05
2.90057e-05
2.95631e-05
3.04074e-05
3.1071e-05
2.96968e-05
2.65307e-05
2.56241e-05
3.63682e-05
3.95784e-05
4.12422e-05
4.31934e-05
4.50319e-05
4.47515e-05
4.47984e-05
4.73037e-05
4.81469e-05
4.79013e-05
4.74479e-05
4.68679e-05
4.62207e-05
4.55463e-05
4.4869e-05
4.42017e-05
4.35495e-05
4.29128e-05
4.22893e-05
4.16759e-05
4.10692e-05
4.04669e-05
3.98671e-05
3.92693e-05
3.8674e-05
3.80827e-05
3.74976e-05
3.69217e-05
3.63584e-05
3.58111e-05
3.52833e-05
3.4779e-05
3.43049e-05
3.38653e-05
3.34605e-05
3.30884e-05
3.27458e-05
3.24288e-05
3.21332e-05
3.18553e-05
3.1592e-05
3.13408e-05
3.10999e-05
3.08682e-05
3.06446e-05
3.04285e-05
3.02193e-05
3.00165e-05
2.98197e-05
2.96284e-05
2.94422e-05
2.92608e-05
2.90838e-05
2.89109e-05
2.87416e-05
2.85755e-05
2.84119e-05
2.8251e-05
2.80936e-05
2.794e-05
2.77901e-05
2.76435e-05
2.75002e-05
2.73596e-05
2.72212e-05
2.70843e-05
2.69479e-05
2.68113e-05
2.66736e-05
2.65339e-05
2.63918e-05
2.62468e-05
2.60989e-05
2.59482e-05
2.57952e-05
2.56404e-05
2.54846e-05
2.53288e-05
2.51738e-05
2.50209e-05
2.48719e-05
2.4729e-05
2.45934e-05
2.44654e-05
2.43442e-05
2.41902e-05
2.39138e-05
2.40093e-05
2.39067e-05
2.38145e-05
2.37402e-05
2.3691e-05
2.36724e-05
2.36853e-05
2.37261e-05
2.37866e-05
2.38559e-05
2.39236e-05
2.39811e-05
2.40234e-05
2.40502e-05
2.22944e-05
2.10724e-05
2.03677e-05
2.01321e-05
2.03315e-05
2.08908e-05
2.16007e-05
2.20746e-05
2.16807e-05
1.96621e-05
1.57235e-05
1.14963e-05
9.28951e-06
9.50055e-06
1.2352e-05
1.84531e-05
2.45175e-05
2.45078e-05
2.45175e-05
2.4535e-05
2.45533e-05
2.4569e-05
2.45816e-05
2.45913e-05
2.45987e-05
2.46046e-05
2.46098e-05
2.46149e-05
2.46207e-05
2.46278e-05
2.46365e-05
2.46474e-05
2.46606e-05
2.46762e-05
2.46945e-05
2.47152e-05
2.47383e-05
2.47636e-05
2.47907e-05
2.48193e-05
2.48492e-05
2.48797e-05
2.49107e-05
2.49416e-05
2.49721e-05
2.5002e-05
2.5031e-05
2.50591e-05
2.50863e-05
2.51127e-05
2.51386e-05
2.51644e-05
2.51904e-05
2.52171e-05
2.52446e-05
2.52735e-05
2.53037e-05
2.53354e-05
2.53686e-05
2.54031e-05
2.54387e-05
2.54749e-05
2.55109e-05
2.55473e-05
2.55803e-05
2.56231e-05
4.20187e-06
4.41931e-06
4.64276e-06
4.98598e-06
5.52568e-06
6.34881e-06
7.51862e-06
9.04938e-06
1.09035e-05
1.30034e-05
1.52518e-05
1.75585e-05
1.9862e-05
2.21373e-05
2.43848e-05
2.66159e-05
2.88463e-05
3.10939e-05
3.33804e-05
3.57307e-05
3.81701e-05
4.07218e-05
4.34057e-05
4.62372e-05
4.92255e-05
5.2371e-05
5.56641e-05
5.90839e-05
6.25975e-05
6.61613e-05
6.97241e-05
7.32314e-05
7.66296e-05
7.98704e-05
8.29134e-05
8.57273e-05
8.829e-05
9.05861e-05
9.26044e-05
9.43343e-05
9.57644e-05
9.68804e-05
9.76669e-05
9.81087e-05
9.8193e-05
9.79113e-05
9.726e-05
9.6241e-05
9.48612e-05
9.3131e-05
9.10643e-05
8.86774e-05
8.59896e-05
8.30227e-05
7.98012e-05
7.63515e-05
7.2703e-05
6.88855e-05
6.4931e-05
6.08741e-05
5.675e-05
5.25982e-05
4.8457e-05
4.43758e-05
4.04019e-05
3.6591e-05
3.30042e-05
2.97122e-05
2.67897e-05
2.43069e-05
2.23206e-05
2.08635e-05
1.99324e-05
1.94799e-05
1.94053e-05
1.95645e-05
1.97953e-05
1.99505e-05
1.99111e-05
1.95964e-05
1.89758e-05
1.80668e-05
1.69107e-05
1.54955e-05
1.36624e-05
1.14179e-05
1.0009e-05
1.15891e-05
1.67932e-05
2.44863e-05
3.2983e-05
4.0839e-05
4.72293e-05
5.19393e-05
5.51636e-05
5.72739e-05
5.86384e-05
5.95377e-05
6.01524e-05
6.05827e-05
6.08775e-05
6.10583e-05
6.11317e-05
6.1097e-05
6.09571e-05
6.07246e-05
6.04226e-05
6.00764e-05
5.97049e-05
5.93173e-05
5.89135e-05
5.84873e-05
5.80283e-05
5.75216e-05
5.69468e-05
5.62803e-05
5.55025e-05
5.29157e-05
4.9239e-05
4.48357e-05
3.95168e-05
3.39987e-05
2.97432e-05
2.75328e-05
2.72622e-05
2.91881e-05
2.88143e-05
2.92864e-05
3.00101e-05
3.10636e-05
3.06086e-05
2.75142e-05
2.44918e-05
3.13297e-05
4.04436e-05
4.20391e-05
4.38877e-05
4.46477e-05
4.54134e-05
4.51842e-05
4.71846e-05
4.80491e-05
4.77064e-05
4.7184e-05
4.65566e-05
4.58769e-05
4.51796e-05
4.4485e-05
4.38034e-05
4.31385e-05
4.24899e-05
4.18552e-05
4.12316e-05
4.06163e-05
4.00072e-05
3.94032e-05
3.8804e-05
3.82104e-05
3.76241e-05
3.70472e-05
3.64826e-05
3.59332e-05
3.54022e-05
3.48925e-05
3.44079e-05
3.39544e-05
3.3535e-05
3.31488e-05
3.27936e-05
3.24657e-05
3.21613e-05
3.18765e-05
3.1608e-05
3.1353e-05
3.11094e-05
3.08756e-05
3.06506e-05
3.04337e-05
3.02242e-05
3.00217e-05
2.98259e-05
2.96364e-05
2.94527e-05
2.92745e-05
2.91015e-05
2.89333e-05
2.87695e-05
2.86097e-05
2.84531e-05
2.82993e-05
2.81482e-05
2.80004e-05
2.78559e-05
2.77143e-05
2.75752e-05
2.74381e-05
2.73026e-05
2.71681e-05
2.70337e-05
2.68987e-05
2.67623e-05
2.66238e-05
2.64824e-05
2.63379e-05
2.61898e-05
2.60383e-05
2.58835e-05
2.57259e-05
2.5566e-05
2.54045e-05
2.52423e-05
2.50801e-05
2.49191e-05
2.47608e-05
2.4608e-05
2.4462e-05
2.43235e-05
2.35191e-05
2.24699e-05
2.16093e-05
2.11622e-05
2.13491e-05
2.23431e-05
2.35593e-05
2.34799e-05
2.34278e-05
2.34092e-05
2.34253e-05
2.34711e-05
2.35372e-05
2.36117e-05
2.36838e-05
2.37451e-05
2.37915e-05
2.35245e-05
2.18909e-05
2.08765e-05
2.03944e-05
2.04233e-05
2.0927e-05
2.17628e-05
2.25964e-05
2.28082e-05
2.15056e-05
1.79263e-05
1.3064e-05