/*--------------------------------*- C++ -*----------------------------------*\
| =========                 |                                                 |
| \\      /  F ield         | OpenFOAM: The Open Source CFD Toolbox           |
|  \\    /   O peration     | Version:  2306                                  |
|   \\  /    A nd           | Website:  www.openfoam.com                      |
|    \\/     M anipulation  |                                                 |
\*---------------------------------------------------------------------------*/
FoamFile
{
    version     2.0;
    format      ascii;
    arch        "LSB;label=32;scalar=64";
    class       volScalarField;
    location    "500";
    object      omega;
}
// * * * * * * * * * * * * * * * * * * * * * * * * * * * * * * * * * * * * * //

dimensions      [0 0 -1 0 0 0 0];

internalField   nonuniform List<scalar> 
25600
(
5751.85
6076.67
6315.6
6467.94
6550.12
6581.9
6580.15
6557.36
6522.13
6480.05
6434.58
6387.86
6341.47
6296
6251.74
6208.97
6168.17
6129.86
6093.94
6060.16
6028.54
5999.28
5972.67
5948.89
5928.04
5910.13
5895.13
5882.9
5873.2
5865.72
5860.13
5856.14
5853.47
5851.91
5851.34
5851.66
5852.9
5854.86
5858.92
5860.28
461.229
947.052
1325.57
1613.02
1821.72
1965.38
2059.13
2117.3
2151.94
2172.32
2185.05
2195.16
2205.04
2216.16
2228.73
2243.57
2263.93
2295.89
2345
2410.33
2483.88
2547.72
2599.44
2640.15
2671.25
2693.85
2708.83
2716.97
2719.44
2717.29
2711.37
2702.43
2691.04
2677.66
2662.61
2646.03
2628.45
2610.34
2586.58
2579.65
164.919
208.242
269.235
334.67
397.991
456.045
507.451
551.885
589.712
621.725
648.911
672.286
692.859
712.042
733.026
758.268
788.053
821.019
857.054
896.838
940.365
986.078
1032.17
1077.52
1120.56
1159.54
1196.03
1228.19
1256.21
1280.49
1301.36
1319.08
1333.85
1345.85
1355.24
1362.15
1366.7
1368.79
1368.83
1362.35
158.659
159.411
165.311
175.409
188.188
202.402
217.14
231.774
245.894
259.233
271.646
283.142
293.763
303.695
313.572
324.018
335.276
347.264
359.826
372.956
386.746
401.288
416.634
432.514
449.979
472.076
498.131
526.059
554.315
582.077
608.949
634.808
659.324
682.073
702.164
719.52
734.73
748.075
760.002
768.312
159.002
157.169
156.129
156.296
157.737
160.294
163.716
167.741
172.144
176.74
181.383
185.973
190.443
194.752
198.913
202.981
207.028
211.093
215.226
219.447
223.769
228.214
232.832
237.587
242.789
249.263
256.997
265.668
275.001
284.794
294.905
305.242
315.717
326.316
338.092
351.384
365.598
379.951
394.002
406.553
159.052
157.179
155.414
153.889
152.736
152.035
151.802
152.006
152.589
153.479
154.605
155.901
157.311
158.788
160.298
161.816
163.332
164.844
166.357
167.876
169.407
170.954
172.525
174.125
175.769
177.535
179.498
181.699
184.148
186.835
189.739
192.84
196.111
199.551
203.513
208.161
213.365
218.9
224.556
230.066
159.053
157.192
155.38
153.632
151.987
150.485
149.163
148.046
147.142
146.446
145.944
145.616
145.436
145.381
145.427
145.552
145.738
145.972
146.243
146.544
146.87
147.216
147.581
147.964
148.363
148.783
149.236
149.737
150.302
150.94
151.659
152.461
153.346
154.309
155.368
156.558
157.898
159.381
160.966
162.641
159.051
157.19
155.375
153.606
151.888
150.23
148.646
147.148
145.75
144.461
143.286
142.225
141.274
140.429
139.68
139.019
138.434
137.917
137.459
137.052
136.689
136.363
136.071
135.807
135.569
135.354
135.161
134.991
134.848
134.735
134.656
134.612
134.608
134.642
134.716
134.832
134.994
135.203
135.454
135.742
159.05
157.187
155.37
153.598
151.87
150.187
148.55
146.963
145.431
143.958
142.548
141.206
139.933
138.731
137.599
136.535
135.536
134.599
133.719
132.893
132.115
131.381
130.688
130.031
129.407
128.814
128.247
127.707
127.192
126.701
126.234
125.792
125.376
124.984
124.618
124.276
123.958
123.663
123.388
123.13
159.049
157.184
155.365
153.591
151.861
150.173
148.527
146.922
145.358
143.836
142.358
140.924
139.537
138.197
136.906
135.663
134.469
133.323
132.223
131.169
130.158
129.189
128.258
127.364
126.504
125.676
124.878
124.109
123.366
122.649
121.956
121.286
120.64
120.015
119.412
118.829
118.266
117.721
117.192
116.676
159.048
157.183
155.362
153.586
151.854
150.164
148.515
146.906
145.335
143.801
142.304
140.845
139.422
138.036
136.687
135.375
134.101
132.864
131.664
130.5
129.372
128.278
127.219
126.192
125.197
124.231
123.295
122.386
121.504
120.647
119.814
119.005
118.218
117.453
116.709
115.984
115.278
114.59
113.918
113.26
159.048
157.181
155.359
153.582
151.848
150.156
148.506
146.894
145.32
143.783
142.281
140.814
139.38
137.98
136.612
135.276
133.972
132.699
131.458
130.247
129.066
127.914
126.792
125.698
124.632
123.593
122.58
121.592
120.629
119.69
118.773
117.88
117.008
116.157
115.326
114.514
113.722
112.946
112.188
111.444
159.048
157.179
155.356
153.576
151.841
150.147
148.494
146.88
145.304
143.764
142.259
140.789
139.351
137.945
136.571
135.226
133.912
132.626
131.368
130.138
128.935
127.759
126.609
125.484
124.384
123.308
122.256
121.227
120.221
119.237
118.274
117.332
116.411
115.51
114.628
113.764
112.919
112.091
111.28
110.484
159.046
157.175
155.348
153.566
151.827
150.131
148.475
146.858
145.278
143.735
142.228
140.754
139.313
137.904
136.526
135.177
133.858
132.567
131.302
130.065
128.853
127.667
126.504
125.366
124.251
123.158
122.088
121.039
120.012
119.005
118.018
117.051
116.104
115.175
114.264
113.372
112.497
111.638
110.796
109.969
159.043
157.166
155.333
153.545
151.801
150.099
148.438
146.816
145.233
143.686
142.174
140.697
139.253
137.84
136.459
135.108
133.785
132.491
131.223
129.982
128.766
127.575
126.408
125.264
124.143
123.043
121.965
120.908
119.871
118.853
117.856
116.877
115.916
114.973
114.049
113.141
112.25
111.375
110.516
109.672
159.037
157.149
155.306
153.508
151.755
150.046
148.377
146.749
145.16
143.607
142.091
140.609
139.161
137.745
136.361
135.007
133.682
132.385
131.115
129.872
128.654
127.461
126.292
125.146
124.022
122.92
121.839
120.778
119.737
118.716
117.714
116.73
115.764
114.816
113.885
112.97
112.072
111.19
110.322
109.47
159.029
157.125
155.268
153.458
151.693
149.973
148.295
146.658
145.061
143.502
141.98
140.493
139.04
137.621
136.233
134.875
133.548
132.249
130.978
129.733
128.514
127.32
126.15
125.003
123.879
122.776
121.694
120.633
119.592
118.57
117.567
116.582
115.615
114.665
113.732
112.816
111.915
111.03
110.16
109.304
159.02
157.098
155.224
153.399
151.621
149.889
148.201
146.555
144.949
143.383
141.855
140.362
138.905
137.481
136.09
134.73
133.4
132.099
130.827
129.581
128.361
127.167
125.997
124.85
123.726
122.623
121.542
120.482
119.441
118.42
117.417
116.433
115.466
114.517
113.584
112.668
111.768
110.883
110.013
109.157
159.01
157.071
155.181
153.342
151.552
149.809
148.111
146.457
144.845
143.272
141.738
140.242
138.78
137.354
135.96
134.598
133.266
131.964
130.69
129.444
128.224
127.029
125.859
124.712
123.589
122.487
121.407
120.347
119.308
118.287
117.286
116.303
115.337
114.389
113.458
112.543
111.643
110.759
109.89
109.035
159.002
157.049
155.148
153.3
151.502
149.752
148.049
146.39
144.774
143.198
141.662
140.162
138.699
137.271
135.875
134.512
133.18
131.877
130.603
129.356
128.136
126.942
125.772
124.626
123.503
122.401
121.322
120.263
119.224
118.204
117.204
116.222
115.257
114.31
113.379
112.465
111.567
110.684
109.815
108.962
159.002
157.049
155.148
153.3
151.502
149.752
148.049
146.39
144.774
143.198
141.662
140.162
138.699
137.271
135.875
134.512
133.18
131.877
130.603
129.356
128.136
126.942
125.772
124.626
123.503
122.401
121.322
120.263
119.224
118.204
117.204
116.222
115.257
114.31
113.379
112.465
111.567
110.684
109.816
108.962
159.01
157.071
155.181
153.342
151.552
149.809
148.111
146.457
144.845
143.272
141.738
140.242
138.78
137.354
135.96
134.598
133.266
131.964
130.69
129.444
128.224
127.029
125.859
124.712
123.589
122.487
121.407
120.347
119.308
118.287
117.286
116.303
115.337
114.389
113.458
112.543
111.644
110.76
109.891
109.036
159.02
157.098
155.224
153.399
151.621
149.889
148.201
146.555
144.949
143.383
141.855
140.362
138.905
137.481
136.09
134.73
133.4
132.099
130.827
129.581
128.361
127.167
125.996
124.85
123.725
122.623
121.542
120.481
119.441
118.419
117.417
116.433
115.466
114.517
113.584
112.668
111.767
110.882
110.012
109.157
159.029
157.125
155.268
153.458
151.693
149.973
148.295
146.658
145.061
143.502
141.98
140.493
139.04
137.621
136.233
134.875
133.548
132.249
130.978
129.733
128.514
127.32
126.15
125.003
123.879
122.776
121.694
120.633
119.592
118.57
117.566
116.581
115.614
114.664
113.731
112.814
111.913
111.028
110.158
109.303
159.037
157.149
155.306
153.508
151.755
150.046
148.377
146.749
145.16
143.607
142.091
140.609
139.161
137.745
136.361
135.007
133.682
132.385
131.115
129.872
128.654
127.461
126.292
125.145
124.021
122.919
121.838
120.777
119.737
118.715
117.713
116.729
115.763
114.814
113.882
112.968
112.069
111.186
110.319
109.467
159.043
157.166
155.333
153.545
151.801
150.099
148.438
146.816
145.233
143.686
142.174
140.697
139.253
137.84
136.459
135.108
133.785
132.491
131.223
129.982
128.766
127.575
126.408
125.264
124.142
123.043
121.965
120.907
119.87
118.852
117.854
116.875
115.914
114.971
114.046
113.138
112.246
111.372
110.513
109.67
159.046
157.175
155.348
153.566
151.827
150.131
148.475
146.858
145.278
143.735
142.228
140.754
139.313
137.904
136.526
135.177
133.858
132.566
131.302
130.065
128.853
127.666
126.504
125.366
124.25
123.158
122.087
121.039
120.011
119.004
118.017
117.05
116.102
115.173
114.262
113.37
112.495
111.637
110.796
109.973
159.048
157.179
155.356
153.576
151.841
150.147
148.494
146.88
145.304
143.764
142.259
140.789
139.351
137.945
136.571
135.226
133.911
132.626
131.368
130.138
128.935
127.759
126.608
125.483
124.383
123.307
122.255
121.226
120.22
119.235
118.273
117.331
116.41
115.509
114.628
113.765
112.922
112.097
111.29
110.501
159.048
157.181
155.359
153.582
151.848
150.156
148.506
146.894
145.32
143.783
142.281
140.814
139.38
137.98
136.612
135.276
133.972
132.699
131.458
130.247
129.066
127.914
126.792
125.698
124.632
123.592
122.579
121.591
120.628
119.689
118.774
117.881
117.01
116.16
115.332
114.523
113.736
112.967
112.219
111.49
159.048
157.183
155.362
153.586
151.854
150.164
148.515
146.906
145.335
143.801
142.304
140.845
139.422
138.036
136.687
135.375
134.101
132.864
131.663
130.499
129.371
128.278
127.219
126.192
125.197
124.231
123.295
122.387
121.505
120.649
119.818
119.01
118.226
117.465
116.726
116.008
115.313
114.639
113.987
113.357
159.049
157.184
155.365
153.591
151.861
150.173
148.527
146.922
145.358
143.836
142.358
140.924
139.537
138.197
136.906
135.663
134.469
133.323
132.223
131.169
130.158
129.189
128.258
127.364
126.505
125.677
124.88
124.112
123.371
122.655
121.965
121.3
120.659
120.042
119.449
118.881
118.338
117.82
117.329
116.864
159.05
157.187
155.37
153.598
151.87
150.187
148.55
146.963
145.431
143.958
142.548
141.206
139.933
138.731
137.599
136.535
135.536
134.599
133.719
132.893
132.115
131.382
130.689
130.033
129.41
128.817
128.252
127.714
127.202
126.715
126.254
125.82
125.413
125.036
124.688
124.373
124.091
123.845
123.639
123.476
159.051
157.19
155.375
153.606
151.888
150.23
148.645
147.148
145.75
144.461
143.286
142.225
141.274
140.429
139.68
139.019
138.434
137.917
137.459
137.053
136.69
136.365
136.073
135.811
135.574
135.361
135.171
135.005
134.868
134.762
134.692
134.662
134.676
134.735
134.843
135.007
135.235
135.537
135.92
136.39
159.053
157.192
155.38
153.632
151.987
150.485
149.163
148.046
147.142
146.446
145.944
145.616
145.436
145.381
145.427
145.552
145.738
145.972
146.244
146.546
146.872
147.22
147.586
147.971
148.372
148.796
149.254
149.763
150.337
150.988
151.725
152.553
153.473
154.483
155.615
156.911
158.404
160.104
162.008
164.106
159.052
157.179
155.414
153.889
152.736
152.035
151.802
152.006
152.589
153.479
154.605
155.901
157.311
158.789
160.298
161.816
163.333
164.845
166.359
167.879
169.411
170.96
172.534
174.137
175.786
177.56
179.535
181.753
184.225
186.944
189.894
193.06
196.419
200.001
204.212
209.211
214.88
221.057
227.608
234.44
159.002
157.169
156.129
156.296
157.737
160.294
163.716
167.741
172.144
176.74
181.383
185.973
190.443
194.753
198.913
202.982
207.03
211.096
215.231
219.454
223.779
228.23
232.854
237.618
242.84
249.347
257.123
265.852
275.262
285.163
295.423
305.969
316.724
327.763
340.272
354.523
369.905
385.796
401.794
417.703
158.659
159.411
165.311
175.409
188.188
202.402
217.14
231.774
245.894
259.233
271.646
283.143
293.765
303.697
313.576
324.023
335.285
347.277
359.845
372.983
386.786
401.347
416.721
432.636
450.18
472.396
498.587
526.676
555.131
583.147
610.347
636.636
661.68
685.048
705.85
724.18
740.722
756.021
770.293
783.94
164.919
208.242
269.235
334.67
397.991
456.046
507.451
551.886
589.714
621.728
648.915
672.291
692.867
712.053
733.043
758.293
788.088
821.066
857.123
896.936
940.506
986.275
1032.44
1077.89
1121.04
1160.16
1196.83
1229.22
1257.53
1282.17
1303.49
1321.76
1337.2
1350.06
1360.52
1368.79
1375.07
1379.62
1382.6
1385.03
461.229
947.052
1325.57
1613.02
1821.72
1965.38
2059.13
2117.31
2151.95
2172.33
2185.06
2195.17
2205.05
2216.19
2228.76
2243.61
2264
2296
2345.16
2410.58
2484.22
2548.17
2600.04
2640.94
2672.29
2695.19
2710.52
2719.11
2722.16
2720.74
2715.76
2708.02
2698.19
2686.87
2674.52
2661.53
2648.2
2634.77
2621.51
2607.99
5751.85
6076.67
6315.6
6467.94
6550.12
6581.9
6580.15
6557.36
6522.13
6480.04
6434.58
6387.86
6341.46
6295.99
6251.72
6208.95
6168.14
6129.81
6093.87
6060.07
6028.41
5999.11
5972.43
5948.57
5927.6
5909.56
5894.39
5881.95
5871.97
5864.14
5858.1
5853.52
5850.1
5847.56
5845.68
5844.28
5843.22
5842.35
5841.55
5840.74
4307.33
3238.05
2639.47
2273.03
2013.27
1810.62
1645.71
1508.58
1392.7
1293.51
1207.66
1132.62
1066.37
1007.35
954.358
906.449
862.878
823.034
786.453
752.764
721.696
693.035
666.621
642.297
619.931
599.383
580.515
563.175
547.201
532.422
518.673
505.794
493.631
482.048
470.935
460.211
449.825
439.744
429.956
420.462
411.272
402.4
393.863
385.676
377.849
370.388
363.295
356.563
350.181
344.13
338.384
332.91
327.673
322.629
317.737
312.953
308.237
303.545
298.837
294.067
289.188
284.142
278.86
273.253
267.211
260.579
253.174
244.754
235.021
223.629
210.298
194.939
177.815
159.628
141.464
124.551
109.927
98.1897
89.4612
83.5396
80.0808
78.7739
79.354
81.5746
85.3044
91.1963
102.289
124.199
158.431
195.755
224.171
239.302
243.868
242.467
238.582
234.092
229.801
225.962
222.608
219.719
217.29
215.349
213.951
213.125
212.787
212.771
212.886
212.964
212.884
212.572
211.995
211.136
209.982
208.509
206.677
204.444
201.772
198.632
194.946
190.584
185.318
178.901
171.303
163.218
155.889
150.068
145.659
142.18
139.334
136.853
134.287
130.878
126.244
121.742
118.479
115.854
113.341
110.849
108.492
106.363
104.509
102.918
101.523
100.269
99.1143
98.0284
96.9902
95.9831
94.9958
94.0188
93.0454
92.0708
91.0927
90.1106
89.1268
88.1446
87.1693
86.2062
85.2621
84.3427
83.4547
82.604
81.797
81.0397
80.3384
79.6991
79.1242
78.612
78.1576
77.7539
77.3928
77.0665
76.7677
76.491
76.2317
75.9871
75.7548
75.5334
75.3218
75.1191
74.9244
74.7374
74.5572
74.3835
74.2156
74.0534
73.8959
73.7431
73.594
73.4482
73.3043
73.1591
73.0119
72.8655
72.7219
72.5841
72.4535
72.332
72.2192
72.1153
72.0185
71.928
71.841
71.756
71.6699
71.5811
71.4865
71.3844
71.2721
71.1481
71.0098
70.8552
70.6811
70.4837
70.2594
70.0069
69.725
69.4149
69.0794
68.7252
68.3611
67.9999
67.6548
67.3377
67.0554
66.8071
66.5834
66.3677
66.1401
65.8813
65.578
65.2237
64.8174
64.3574
63.8458
63.2881
62.6958
62.0828
61.4654
60.8558
60.2615
59.6774
59.0866
58.4459
57.6563
56.5033
54.7559
52.754
51.27
50.3833
49.8052
49.3472
48.9308
48.5324
48.1423
47.7587
47.3826
47.0152
46.658
46.312
45.9785
45.6581
45.352
45.0607
44.7851
44.5255
44.2826
44.0563
43.8472
43.6549
43.4795
43.3204
43.177
43.0483
42.9334
42.8307
42.7388
42.6559
42.5801
42.5097
42.4428
42.3779
42.3136
42.2487
42.1825
42.1145
42.0444
41.9722
41.8982
41.8223
41.7449
41.6661
41.5858
41.504
41.4201
41.3332
41.2442
41.1442
41.0647
40.8759
2429.68
2267.59
2136.31
2027.58
1922.94
1812.25
1696.15
1580.65
1471.54
1372.03
1282.84
1203.29
1132.2
1068.45
1011.06
959.173
912.042
869.033
829.623
793.38
759.959
729.082
700.529
674.115
649.687
627.1
606.221
586.917
569.049
552.472
537.045
522.623
509.065
496.234
484.013
472.307
461.046
450.182
439.684
429.537
419.738
410.29
401.205
392.491
384.158
376.212
368.651
361.467
354.649
348.175
342.016
336.138
330.503
325.066
319.781
314.6
309.478
304.366
299.212
293.96
288.55
282.905
276.932
270.512
263.497
255.693
246.864
236.695
224.846
211.053
195.257
177.76
159.306
141.008
124.087
109.541
97.9139
89.2797
83.3853
79.8832
78.4851
78.9732
81.1827
85.0183
90.7789
100.384
118.71
149.977
188.916
222.784
243.539
251.677
251.703
247.907
242.928
238.032
233.672
229.919
226.721
224.018
221.79
220.053
218.842
218.124
217.763
217.59
217.441
217.187
216.744
216.068
215.141
213.954
212.496
210.747
208.672
206.234
203.412
200.205
196.553
192.321
187.19
180.735
172.799
164.159
156.288
150.073
145.498
141.848
138.806
136.17
133.609
130.366
125.645
120.479
116.831
114.174
111.798
109.487
107.294
105.325
103.575
102.037
100.659
99.3983
98.225
97.1157
96.0545
95.0282
94.0272
93.0427
92.0684
91.0991
90.1326
89.168
88.2073
87.2532
86.3106
85.3841
84.4797
83.6027
82.7588
81.9534
81.192
80.4798
79.8222
79.2232
78.6834
78.2
77.7678
77.3804
77.0307
76.712
76.4186
76.1463
75.8917
75.6527
75.4276
75.2157
75.0158
74.8274
74.6498
74.4824
74.3247
74.1761
74.0361
73.9044
73.7802
73.6631
73.5521
73.4466
73.3439
73.2397
73.1334
73.0274
72.9233
72.8237
72.7298
72.643
72.5628
72.4891
72.4204
72.3555
72.2921
72.2287
72.1626
72.0921
72.0146
71.9285
71.8315
71.7221
71.5981
71.4577
71.2981
71.1158
70.9065
70.6675
70.3952
70.0875
69.743
69.3634
68.9561
68.5342
68.1154
67.7179
67.3581
67.0443
66.7745
66.5357
66.3073
66.0654
65.7896
65.4661
65.0902
64.6606
64.1764
63.641
63.0638
62.4579
61.8408
61.2282
60.6323
60.0538
59.4824
58.8868
58.1941
57.2219
55.6634
53.5129
51.6287
50.4382
49.7192
49.2079
48.7749
48.3716
47.9821
47.6007
47.2272
46.8624
46.5075
46.1637
45.8324
45.5143
45.2108
44.9224
44.6502
44.3946
44.1561
43.935
43.7313
43.5448
43.3752
43.2219
43.084
42.9603
42.8496
42.7503
42.6606
42.5787
42.5029
42.4313
42.3624
42.2947
42.2271
42.1588
42.0893
42.0181
41.9454
41.8712
41.7957
41.7191
41.6415
41.5631
41.4837
41.4029
41.3204
41.2348
41.1472
41.0483
40.9706
40.7804
1363.39
1362.07
1358.81
1361.2
1373.48
1390.87
1402.55
1398.48
1374.51
1332.87
1279.35
1220.19
1160.14
1102
1047.11
995.906
948.433
904.551
864.027
826.571
791.896
759.742
729.89
702.147
676.35
652.352
630.018
609.226
589.859
571.799
554.931
539.142
524.31
510.312
497.037
484.387
472.283
460.663
449.484
438.716
428.341
418.353
408.751
399.54
390.724
382.304
374.279
366.638
359.367
352.441
345.834
339.506
333.419
327.527
321.78
316.125
310.508
304.873
299.157
293.291
287.19
280.758
273.862
266.354
258.035
248.656
237.894
225.424
211.015
194.664
176.74
158.049
139.723
122.96
108.681
97.3371
88.9272
83.1533
79.6722
78.221
78.6172
80.7571
84.6199
90.3926
99.2076
114.635
141.802
179.83
217.83
244.792
257.903
260.549
257.482
252.188
246.597
241.538
237.229
233.619
230.596
228.075
226.019
224.429
223.315
222.605
222.141
221.764
221.343
220.782
220.022
219.039
217.825
216.378
214.69
212.745
210.516
207.981
205.133
201.978
198.444
194.373
189.38
182.817
174.411
165.087
156.593
150.012
145.283
141.469
138.228
135.407
132.807
129.794
125.323
119.661
115.553
112.841
110.606
108.463
106.402
104.548
102.858
101.337
99.9495
98.6651
97.4628
96.3254
95.2409
94.1979
93.1875
92.2009
91.2313
90.2732
89.3235
88.3809
87.4464
86.5223
85.6126
84.7215
83.854
83.015
82.2094
81.442
80.7177
80.041
79.4164
78.8461
78.3296
77.8637
77.4435
77.0631
76.7165
76.3982
76.1039
75.8302
75.5748
75.3365
75.1141
74.9072
74.715
74.5372
74.3731
74.2223
74.0841
73.9583
73.844
73.741
73.6486
73.5663
73.493
73.4277
73.3656
73.3023
73.2367
73.1705
73.1051
73.0425
72.9838
72.9298
72.8804
72.8352
72.7928
72.7523
72.7116
72.6693
72.6231
72.5713
72.5116
72.4427
72.3624
72.2695
72.1622
72.0388
71.8972
71.7346
71.5476
71.3342
71.091
70.8123
70.4904
70.1179
69.6938
69.2267
68.7381
68.2555
67.8023
67.3985
67.0541
66.7647
66.513
66.2732
66.0181
65.7256
65.3828
64.9856
64.5331
64.0254
63.4691
62.8756
62.2617
61.6455
61.0436
60.463
59.8998
59.3335
58.7135
57.9047
56.6033
54.532
52.3127
50.7115
49.7649
49.1606
48.6943
48.2793
47.8889
47.508
47.1356
46.7717
46.4176
46.0743
45.7433
45.4257
45.1228
44.8354
44.5645
44.3106
44.0742
43.8556
43.6547
43.4711
43.3046
43.154
43.0186
42.8969
42.7875
42.6887
42.5988
42.5159
42.4383
42.3643
42.2925
42.2216
42.1509
42.0795
42.0072
41.9338
41.8594
41.7842
41.7084
41.6322
41.5558
41.479
41.4018
41.3237
41.2442
41.1619
41.0779
40.983
40.9089
40.7227
778.578
789.651
800.361
812.428
829.767
855.968
892.436
937.194
984.835
1027.84
1058.93
1073.4
1070.37
1052.41
1023.95
989.48
952.503
915.235
878.88
844.008
810.883
779.607
750.18
722.541
696.6
672.251
649.391
627.921
607.752
588.795
570.97
554.196
538.385
523.445
509.283
495.813
482.961
470.662
458.866
447.533
436.634
426.153
416.08
406.411
397.145
388.279
379.805
371.714
363.986
356.597
349.515
342.703
336.118
329.714
323.435
317.218
311.004
304.724
298.297
291.637
284.622
277.134
268.995
260.007
249.895
238.336
225.039
209.829
192.792
174.394
155.52
137.318
120.919
107.131
96.2786
88.2667
82.7427
79.3783
77.9408
78.2838
80.3489
84.1809
89.9745
98.4563
112.002
135.201
170.268
210.106
242.78
261.899
268.548
267.178
261.987
255.713
249.782
244.702
240.51
237.066
234.22
231.869
229.962
228.488
227.431
226.686
226.09
225.504
224.823
223.979
222.937
221.684
220.225
218.559
216.685
214.59
212.258
209.676
206.846
203.755
200.313
196.335
191.393
184.661
175.743
165.749
156.72
149.889
145.028
141.08
137.663
134.64
131.932
129.087
125.045
119.2
114.565
111.734
109.608
107.608
105.658
103.896
102.252
100.737
99.3347
98.0257
96.7962
95.6346
94.5315
93.4769
92.462
91.4779
90.5171
89.5736
88.6435
87.7249
86.8181
85.9247
85.0481
84.1918
83.3602
82.5575
81.7879
81.0558
80.3652
79.72
79.1235
78.5767
78.0779
77.6238
77.2097
76.8305
76.4813
76.1578
75.8569
75.5763
75.3148
75.0717
74.8468
74.6397
74.4502
74.2781
74.1228
73.9842
73.8614
73.7542
73.662
73.5844
73.5206
73.4704
73.4324
73.405
73.3817
73.3575
73.3311
73.3033
73.2752
73.2483
73.2233
73.2009
73.1808
73.1627
73.1454
73.128
73.1088
73.0866
73.0592
73.0252
72.9826
72.93
72.8656
72.7883
72.6963
72.5883
72.4623
72.3166
72.1482
71.9566
71.7417
71.5
71.2232
70.8992
70.5138
70.0575
69.5372
68.9817
68.4307
67.9205
67.473
67.0992
66.7911
66.5261
66.2734
66.0026
65.691
65.3263
64.9061
64.429
63.8983
63.3226
62.7166
62.0985
61.4876
60.8963
60.3268
59.7657
59.1778
58.4682
57.3875
55.5524
53.188
51.1956
49.9446
49.1992
48.6782
48.243
47.8477
47.4654
47.0926
46.7287
46.3744
46.0308
45.6995
45.3816
45.0786
44.7914
44.5209
44.2679
44.0327
43.8155
43.6162
43.4343
43.2693
43.12
42.9855
42.8641
42.7545
42.6547
42.5632
42.478
42.3975
42.3203
42.245
42.1706
42.0965
42.022
41.9471
41.8717
41.796
41.7202
41.6446
41.5693
41.4945
41.4199
41.3455
41.2708
41.1951
41.117
41.0375
40.9474
40.878
40.6984
419.093
429.278
437.847
446.559
456.724
469.714
487.122
510.855
542.909
584.535
635.047
691.022
746.667
795.406
831.871
853.36
860.134
854.68
840.454
820.762
798.145
774.274
750.144
726.324
703.151
680.786
659.322
638.79
619.186
600.485
582.668
565.705
549.558
534.184
519.533
505.553
492.195
479.409
467.148
455.374
444.056
433.17
422.702
412.642
402.982
393.714
384.827
376.306
368.132
360.275
352.701
345.37
338.239
331.257
324.36
317.471
310.523
303.427
296.072
288.354
280.111
271.176
261.318
250.239
237.645
223.294
207.106
189.292
170.449
151.536
133.693
117.936
104.905
94.7646
87.3221
82.1741
79.0189
77.6584
77.988
79.9937
83.7675
89.5416
97.8806
110.369
130.496
161.704
200.898
237.604
262.887
274.828
276.512
272.292
265.635
258.745
252.655
247.63
243.578
240.299
237.616
235.411
233.625
232.23
231.192
230.378
229.633
228.836
227.91
226.808
225.513
224.025
222.355
220.507
218.483
216.276
213.875
211.274
208.472
205.429
202.036
198.088
193.137
186.244
176.841
166.244
156.795
149.795
144.811
140.751
137.191
133.98
131.135
128.384
124.787
119.1
113.893
110.851
108.788
106.911
105.05
103.362
101.753
100.238
98.8195
97.4865
96.2323
95.0498
93.9319
92.8695
91.8539
90.8756
89.9267
89.0003
88.092
87.1992
86.3215
85.4599
84.6171
83.7958
82.9999
82.2327
81.4982
80.7996
80.1405
79.5239
78.952
78.4241
77.9382
77.4905
77.077
76.6935
76.336
76.0017
75.6884
75.3951
75.1215
74.8678
74.6342
74.421
74.2283
74.0561
73.904
73.772
73.6593
73.5656
73.4905
73.4335
73.3941
73.3719
73.3655
73.3728
73.3852
73.3977
73.4082
73.4169
73.4243
73.4315
73.4387
73.4465
73.4544
73.4623
73.469
73.4738
73.4753
73.4725
73.4635
73.447
73.4211
73.3847
73.336
73.2739
73.1967
73.1031
72.9912
72.8591
72.7039
72.5251
72.3241
72.1028
71.8604
71.5908
71.2788
70.9016
70.4359
69.8763
69.2562
68.6352
68.0677
67.5784
67.1778
66.8534
66.5765
66.3108
66.0236
65.6919
65.3055
64.8614
64.3609
63.8091
63.2179
62.6038
61.9872
61.3842
60.8027
60.2363
59.6588
59.0027
58.0839
56.5281
54.1984
51.9056
50.2977
49.3444
48.7361
48.2683
47.8589
47.4719
47.0974
46.7324
46.3773
46.0329
45.7007
45.382
45.0784
44.7908
44.5202
44.2673
44.0325
43.8158
43.617
43.4355
43.2707
43.1213
42.9862
42.8638
42.7525
42.6504
42.556
42.4675
42.3833
42.3021
42.2227
42.1444
42.0665
41.9888
41.9112
41.8338
41.7568
41.6805
41.605
41.5306
41.4574
41.3852
41.3138
41.2426
41.1709
41.0975
41.023
40.9386
40.8745
40.7034
235.057
241.807
249.222
255.601
261.479
267.577
274.441
282.742
293.455
307.928
327.811
354.77
389.882
433.017
482.294
534.187
584.197
627.925
662.104
685.223
697.562
700.699
696.799
687.993
676.03
662.167
647.227
631.725
615.99
600.234
584.646
569.3
554.276
539.637
525.422
511.657
498.367
485.541
473.167
461.229
449.712
438.601
427.885
417.556
407.604
398.014
388.775
379.868
371.272
362.952
354.868
346.979
339.239
331.59
323.954
316.227
308.334
300.162
291.561
282.385
272.428
261.424
249.097
235.196
219.57
202.279
183.7
164.57
145.905
128.769
113.999
102.021
92.8203
86.1025
81.4528
78.5966
77.3778
77.7366
79.7093
83.4304
89.1615
97.4134
109.335
127.419
155.004
191.824
230.288
260.732
278.52
284.61
282.653
276.382
268.729
261.464
255.318
250.379
246.464
243.332
240.786
238.698
236.999
235.65
234.594
233.684
232.776
231.771
230.613
229.275
227.755
226.061
224.209
222.209
220.063
217.769
215.319
212.708
209.922
206.896
203.507
199.539
194.54
187.527
177.712
166.613
156.868
149.744
144.653
140.508
136.84
133.476
130.491
127.777
124.586
119.358
113.614
110.222
108.158
106.375
104.575
102.95
101.366
99.8455
98.4098
97.0541
95.7779
94.5775
93.4479
92.3807
91.3669
90.3968
89.4618
88.5545
87.6697
86.8042
85.9569
85.1281
84.3198
83.5342
82.7743
82.0428
81.3429
80.6771
80.0482
79.4582
78.908
78.3956
77.9182
77.4726
77.055
76.6621
76.2912
75.9405
75.6092
75.2974
75.0056
74.735
74.4864
74.2606
74.0582
73.8793
73.7239
73.592
73.483
73.3966
73.3326
73.2905
73.2699
73.2705
73.2909
73.3284
73.3729
73.4188
73.4634
73.5063
73.5473
73.5867
73.6247
73.6615
73.6966
73.7298
73.76
73.7867
73.8089
73.8257
73.8354
73.837
73.8289
73.8097
73.7781
73.7328
73.6722
73.5948
73.4986
73.3816
73.2406
73.0746
72.8848
72.6746
72.4477
72.2057
71.9435
71.6456
71.2822
70.8186
70.2325
69.5529
68.8642
68.2408
67.714
67.2915
66.9551
66.6684
66.3903
66.086
65.7354
65.3262
64.8592
64.3373
63.7685
63.1667
62.5513
61.9409
61.3478
60.7716
60.1967
59.5712
58.7645
57.4601
55.3105
52.8467
50.8719
49.6294
48.8793
48.3555
47.9236
47.5282
47.15
46.7829
46.4262
46.0803
45.7468
45.4269
45.1221
44.8336
44.5624
44.309
44.0738
43.8567
43.6575
43.4754
43.3097
43.159
43.0222
42.8974
42.7832
42.6777
42.5794
42.4866
42.3978
42.3119
42.2279
42.1451
42.0632
41.9819
41.9012
41.8214
41.7427
41.6655
41.5898
41.516
41.4441
41.3739
41.3052
41.2373
41.1698
41.1012
41.032
40.9538
40.8954
40.7358
164.1
166.398
169.59
172.988
176.178
179.228
182.308
185.58
189.281
193.766
199.526
207.217
217.612
231.677
250.409
274.57
304.46
339.629
378.797
419.637
459.336
495.264
525.433
548.771
565.123
575.069
579.588
579.763
576.586
570.861
563.213
554.129
543.971
533.04
521.594
509.861
498.064
486.291
474.64
463.184
451.968
441.024
430.373
420.026
409.978
400.219
390.741
381.527
372.555
363.786
355.168
346.661
338.214
329.753
321.178
312.356
303.19
293.521
283.16
271.865
259.391
245.505
230.045
213.006
194.639
175.509
156.473
138.529
122.576
109.198
98.5691
90.5172
84.6538
80.6012
78.1218
77.1057
77.5368
79.5067
83.1969
88.8943
97.0837
108.689
125.518
150.289
184.104
222.312
256.142
279.277
290.534
292.191
287.553
279.819
271.489
263.991
257.832
252.975
249.175
246.162
243.722
241.719
240.074
238.737
237.633
236.605
235.525
234.316
232.94
231.386
229.663
227.788
225.778
223.647
221.398
219.031
216.538
213.908
211.112
208.066
204.641
200.615
195.543
188.457
178.338
166.861
156.922
149.722
144.561
140.359
136.615
133.132
130.016
127.299
124.448
119.905
113.814
109.9
107.731
105.999
104.241
102.661
101.097
99.5673
98.1138
96.7372
95.4409
94.2249
93.0857
92.0156
91.0056
90.0454
89.1259
88.239
87.379
86.5419
85.7262
84.9313
84.1585
83.4094
82.6861
81.9907
81.3255
80.6923
80.0928
79.5281
78.9974
78.4977
78.0258
77.5784
77.1527
76.7462
76.3573
75.9855
75.6311
75.2953
74.9796
74.686
74.416
74.1709
73.9518
73.7593
73.5935
73.4545
73.3421
73.2561
73.1962
73.1622
73.1539
73.1711
73.2125
73.2748
73.3468
73.4221
73.4976
73.5719
73.6441
73.7142
73.7816
73.8465
73.9083
73.9665
74.0203
74.0695
74.1132
74.1506
74.1805
74.202
74.2137
74.2144
74.2027
74.1774
74.137
74.0798
74.0037
73.9064
73.7845
73.6363
73.4623
73.2651
73.0484
72.8162
72.5721
72.3131
72.0239
71.6708
71.2087
70.5995
69.8645
69.1114
68.4367
67.8794
67.4423
67.0985
66.8046
66.5151
66.1949
65.8227
65.3906
64.9027
64.3629
63.7816
63.1762
62.5657
61.9663
61.3825
60.8095
60.208
59.4824
58.3815
56.4983
53.9954
51.6917
50.0967
49.1327
48.5143
48.0437
47.6348
47.2503
46.8798
46.5207
46.1729
45.8376
45.5161
45.2099
44.9202
44.6478
44.3934
44.1572
43.9391
43.7388
43.5553
43.3878
43.2349
43.0953
42.9673
42.8493
42.7395
42.6364
42.5385
42.4445
42.3532
42.264
42.1762
42.0896
42.0041