/*--------------------------------*- C++ -*----------------------------------*\
| =========                 |                                                 |
| \\      /  F ield         | OpenFOAM: The Open Source CFD Toolbox           |
|  \\    /   O peration     | Version:  2306                                  |
|   \\  /    A nd           | Website:  www.openfoam.com                      |
|    \\/     M anipulation  |                                                 |
\*---------------------------------------------------------------------------*/
FoamFile
{
    version     2.0;
    format      ascii;
    arch        "LSB;label=32;scalar=64";
    class       volScalarField;
    location    "500";
    object      p;
}
// * * * * * * * * * * * * * * * * * * * * * * * * * * * * * * * * * * * * * //

dimensions      [0 2 -2 0 0 0 0];

internalField   nonuniform List<scalar> 
25600
(
-0.153712
-0.165669
-0.169531
-0.170648
-0.172247
-0.174218
-0.176109
-0.177894
-0.17967
-0.181461
-0.183254
-0.185042
-0.186846
-0.188681
-0.190531
-0.192372
-0.19418
-0.19595
-0.197718
-0.199496
-0.201252
-0.202956
-0.204586
-0.206139
-0.207614
-0.209014
-0.210335
-0.211581
-0.212775
-0.21393
-0.215057
-0.216168
-0.217275
-0.218391
-0.219527
-0.220698
-0.221937
-0.223301
-0.224825
-0.226888
-0.156602
-0.165861
-0.16936
-0.170498
-0.172067
-0.174018
-0.175908
-0.1777
-0.179485
-0.181287
-0.183089
-0.184906
-0.186748
-0.188602
-0.190454
-0.192292
-0.194101
-0.195882
-0.197655
-0.199426
-0.201172
-0.202868
-0.204497
-0.206051
-0.207529
-0.208935
-0.21026
-0.211511
-0.212709
-0.213867
-0.214998
-0.216112
-0.217221
-0.21834
-0.219479
-0.220653
-0.221894
-0.223252
-0.224756
-0.226559
-0.158662
-0.165826
-0.169275
-0.170599
-0.172189
-0.174129
-0.176015
-0.177807
-0.17959
-0.181383
-0.183173
-0.18498
-0.186808
-0.188636
-0.190462
-0.192279
-0.194077
-0.195854
-0.197619
-0.199375
-0.201104
-0.202786
-0.204407
-0.205954
-0.207427
-0.208826
-0.21015
-0.211407
-0.212614
-0.21378
-0.214918
-0.216037
-0.21715
-0.21827
-0.219408
-0.220579
-0.22181
-0.223141
-0.224577
-0.226122
-0.160395
-0.165874
-0.169231
-0.170699
-0.172277
-0.174172
-0.17603
-0.17781
-0.179589
-0.18138
-0.183159
-0.184955
-0.18678
-0.188607
-0.190431
-0.192248
-0.194048
-0.195824
-0.197584
-0.199334
-0.201055
-0.202729
-0.204343
-0.205886
-0.207357
-0.208755
-0.210082
-0.211349
-0.212564
-0.213735
-0.214876
-0.215998
-0.217111
-0.218229
-0.219361
-0.220522
-0.221733
-0.223025
-0.224379
-0.225744
-0.161817
-0.166024
-0.169226
-0.170791
-0.172354
-0.174213
-0.176059
-0.177838
-0.179615
-0.181407
-0.183188
-0.18498
-0.186799
-0.18862
-0.190438
-0.192249
-0.194045
-0.195812
-0.197562
-0.199305
-0.201017
-0.202682
-0.204289
-0.205827
-0.207297
-0.208696
-0.210027
-0.211298
-0.212515
-0.213689
-0.214832
-0.215956
-0.217071
-0.218188
-0.219314
-0.220464
-0.221655
-0.222906
-0.224184
-0.225416
-0.163073
-0.16621
-0.169218
-0.170868
-0.172425
-0.17425
-0.176084
-0.177859
-0.179632
-0.18142
-0.183203
-0.184995
-0.186808
-0.188624
-0.190437
-0.192243
-0.194035
-0.195799
-0.197545
-0.199279
-0.200983
-0.20264
-0.20424
-0.205775
-0.207242
-0.208642
-0.209975
-0.211248
-0.212469
-0.213648
-0.214795
-0.215921
-0.217036
-0.218149
-0.21927
-0.220409
-0.221579
-0.222789
-0.223999
-0.225125
-0.164101
-0.166461
-0.169247
-0.170948
-0.172497
-0.174285
-0.176104
-0.177874
-0.179642
-0.181427
-0.18321
-0.185001
-0.18681
-0.188622
-0.190431
-0.192232
-0.19402
-0.195783
-0.197525
-0.199253
-0.200949
-0.202599
-0.204194
-0.205726
-0.207192
-0.208591
-0.209926
-0.211202
-0.212427
-0.213609
-0.214758
-0.215886
-0.217
-0.21811
-0.219224
-0.220351
-0.221499
-0.22267
-0.22382
-0.224864
-0.16495
-0.166752
-0.169305
-0.171027
-0.172567
-0.174321
-0.176123
-0.177887
-0.179651
-0.181431
-0.183214
-0.185004
-0.186808
-0.188617
-0.190422
-0.192219
-0.194003
-0.195764
-0.197503
-0.199224
-0.200914
-0.202558
-0.204149
-0.205678
-0.207142
-0.208542
-0.209879
-0.211158
-0.212385
-0.21357
-0.214722
-0.21585
-0.216963
-0.21807
-0.219177
-0.220291
-0.221417
-0.222552
-0.223651
-0.22463
-0.165658
-0.16707
-0.169375
-0.171099
-0.172635
-0.174357
-0.176141
-0.1779
-0.179659
-0.181435
-0.183217
-0.185005
-0.186806
-0.188611
-0.190413
-0.192206
-0.193986
-0.195744
-0.19748
-0.199196
-0.20088
-0.202519
-0.204105
-0.205632
-0.207095
-0.208495
-0.209833
-0.211114
-0.212345
-0.213532
-0.214686
-0.215814
-0.216926
-0.218028
-0.219127
-0.220229
-0.221334
-0.222435
-0.223489
-0.224417
-0.166252
-0.167381
-0.169458
-0.171169
-0.1727
-0.174392
-0.17616
-0.177912
-0.179667
-0.181439
-0.183219
-0.185006
-0.186803
-0.188605
-0.190403
-0.192193
-0.193969
-0.195725
-0.197458
-0.199169
-0.200847
-0.202482
-0.204065
-0.205589
-0.207051
-0.208451
-0.20979
-0.211073
-0.212306
-0.213495
-0.21465
-0.215778
-0.216888
-0.217985
-0.219077
-0.220165
-0.22125
-0.22232
-0.223336
-0.224224
-0.166754
-0.167673
-0.169552
-0.171235
-0.172762
-0.174427
-0.176177
-0.177924
-0.179675
-0.181443
-0.183221
-0.185006
-0.1868
-0.188599
-0.190394
-0.19218
-0.193953
-0.195706
-0.197437
-0.199143
-0.200817
-0.202448
-0.204027
-0.205549
-0.20701
-0.20841
-0.20975
-0.211035
-0.212269
-0.21346
-0.214615
-0.215743
-0.21685
-0.217943
-0.219025
-0.220101
-0.221166
-0.222209
-0.223191
-0.224046
-0.167176
-0.167943
-0.16965
-0.171297
-0.172818
-0.174461
-0.176194
-0.177935
-0.179682
-0.181447
-0.183223
-0.185006
-0.186798
-0.188593
-0.190385
-0.192169
-0.193939
-0.19569
-0.197418
-0.19912
-0.20079
-0.202416
-0.203993
-0.205512
-0.206973
-0.208372
-0.209713
-0.210999
-0.212234
-0.213426
-0.214582
-0.215708
-0.216813
-0.2179
-0.218974
-0.220037
-0.221084
-0.222102
-0.223054
-0.223883
-0.167531
-0.168184
-0.169748
-0.171355
-0.172869
-0.174492
-0.17621
-0.177946
-0.179689
-0.18145
-0.183224
-0.185006
-0.186796
-0.188588
-0.190378
-0.192159
-0.193926
-0.195675
-0.1974
-0.199099
-0.200765
-0.202389
-0.203962
-0.20548
-0.206939
-0.208338
-0.20968
-0.210966
-0.212202
-0.213394
-0.21455
-0.215675
-0.216776
-0.217858
-0.218924
-0.219974
-0.221004
-0.221999
-0.222926
-0.223733
-0.167827
-0.168397
-0.16984
-0.171408
-0.172915
-0.174521
-0.176225
-0.177955
-0.179695
-0.181453
-0.183226
-0.185006
-0.186793
-0.188584
-0.190371
-0.19215
-0.193915
-0.195661
-0.197385
-0.199081
-0.200744
-0.202364
-0.203935
-0.205451
-0.206909
-0.208308
-0.20965
-0.210936
-0.212173
-0.213365
-0.21452
-0.215643
-0.216741
-0.217817
-0.218875
-0.219913
-0.220926
-0.2219
-0.222805
-0.223595
-0.168071
-0.168579
-0.169924
-0.171454
-0.172954
-0.174547
-0.176239
-0.177963
-0.1797
-0.181456
-0.183227
-0.185006
-0.186792
-0.18858
-0.190365
-0.192142
-0.193905
-0.19565
-0.197371
-0.199065
-0.200725
-0.202343
-0.203911
-0.205426
-0.206883
-0.208282
-0.209623
-0.21091
-0.212146
-0.213339
-0.214492
-0.215613
-0.216707
-0.217777
-0.218826
-0.219853
-0.220851
-0.221806
-0.222691
-0.223467
-0.168268
-0.168731
-0.169998
-0.171495
-0.172987
-0.174569
-0.17625
-0.17797
-0.179705
-0.181459
-0.183228
-0.185006
-0.18679
-0.188577
-0.190361
-0.192136
-0.193897
-0.19564
-0.19736
-0.199052
-0.200709
-0.202325
-0.203892
-0.205405
-0.206861
-0.208259
-0.2096
-0.210887
-0.212123
-0.213314
-0.214466
-0.215585
-0.216675
-0.217739
-0.21878
-0.219796
-0.220779
-0.221717
-0.222585
-0.223348
-0.168422
-0.168852
-0.170059
-0.171528
-0.173014
-0.174587
-0.17626
-0.177976
-0.179709
-0.181461
-0.183229
-0.185006
-0.186789
-0.188574
-0.190357
-0.192131
-0.193891
-0.195633
-0.197351
-0.199041
-0.200696
-0.20231
-0.203876
-0.205388
-0.206843
-0.20824
-0.209581
-0.210867
-0.212103
-0.213293
-0.214443
-0.215559
-0.216644
-0.217703
-0.218735
-0.21974
-0.22071
-0.221633
-0.222485
-0.223238
-0.168535
-0.168942
-0.170106
-0.171553
-0.173034
-0.1746
-0.176267
-0.17798
-0.179712
-0.181463
-0.183229
-0.185006
-0.186788
-0.188573
-0.190354
-0.192127
-0.193886
-0.195627
-0.197344
-0.199033
-0.200687
-0.202299
-0.203863
-0.205374
-0.206829
-0.208225
-0.209565
-0.210851
-0.212085
-0.213274
-0.214422
-0.215535
-0.216615
-0.217668
-0.218692
-0.219687
-0.220645
-0.221553
-0.222392
-0.223136
-0.168609
-0.169002
-0.170138
-0.171571
-0.173048
-0.17461
-0.176272
-0.177983
-0.179714
-0.181464
-0.18323
-0.185006
-0.186788
-0.188571
-0.190352
-0.192124
-0.193883
-0.195623
-0.197339
-0.199027
-0.20068
-0.202291
-0.203854
-0.205364
-0.206818
-0.208214
-0.209553
-0.210838
-0.212071
-0.213258
-0.214403
-0.215512
-0.216589
-0.217635
-0.218652
-0.219636
-0.220582
-0.221478
-0.222305
-0.223042
-0.168646
-0.169032
-0.170154
-0.171579
-0.173055
-0.174614
-0.176274
-0.177984
-0.179715
-0.181464
-0.18323
-0.185006
-0.186787
-0.188571
-0.190351
-0.192123
-0.193881
-0.19562
-0.197336
-0.199023
-0.200676
-0.202287
-0.203849
-0.205358
-0.206811
-0.208207
-0.209545
-0.210828
-0.21206
-0.213244
-0.214387
-0.215493
-0.216564
-0.217604
-0.218613
-0.219588
-0.220523
-0.221407
-0.222224
-0.222954
-0.168646
-0.169032
-0.170154
-0.171579
-0.173055
-0.174614
-0.176274
-0.177984
-0.179715
-0.181464
-0.18323
-0.185006
-0.186787
-0.18857
-0.190351
-0.192122
-0.19388
-0.19562
-0.197336
-0.199023
-0.200675
-0.202285
-0.203847
-0.205356
-0.206808
-0.208203
-0.20954
-0.210821
-0.212051
-0.213234
-0.214374
-0.215475
-0.216542
-0.217575
-0.218577
-0.219543
-0.220468
-0.221341
-0.222148
-0.222872
-0.168609
-0.169002
-0.170138
-0.17157
-0.173048
-0.17461
-0.176272
-0.177983
-0.179714
-0.181463
-0.18323
-0.185006
-0.186787
-0.188571
-0.190351
-0.192123
-0.193882
-0.195621
-0.197337
-0.199024
-0.200677
-0.202287
-0.203849
-0.205358
-0.206809
-0.208203
-0.209538
-0.210818
-0.212046
-0.213226
-0.214362
-0.21546
-0.216521
-0.217549
-0.218543
-0.2195
-0.220415
-0.221279
-0.222077
-0.222797
-0.168535
-0.168942
-0.170106
-0.171553
-0.173034
-0.1746
-0.176267
-0.17798
-0.179712
-0.181462
-0.183229
-0.185005
-0.186788
-0.188572
-0.190353
-0.192125
-0.193884
-0.195624
-0.197341
-0.199028
-0.200681
-0.202292
-0.203854
-0.205363
-0.206814
-0.208206
-0.209541
-0.210819
-0.212044
-0.213221
-0.214354
-0.215447
-0.216503
-0.217525
-0.218511
-0.21946
-0.220367
-0.221221
-0.222012
-0.222727
-0.168422
-0.168851
-0.170059
-0.171528
-0.173014
-0.174587
-0.176259
-0.177975
-0.179709
-0.181461
-0.183228
-0.185005
-0.186788
-0.188573
-0.190355
-0.192129
-0.193888
-0.195629
-0.197346
-0.199035
-0.200689
-0.202301
-0.203863
-0.205372
-0.206822
-0.208214
-0.209547
-0.210823
-0.212045
-0.213219
-0.214348
-0.215436
-0.216487
-0.217503
-0.218482
-0.219423
-0.220321
-0.221167
-0.221951
-0.222662
-0.168268
-0.168731
-0.169998
-0.171495
-0.172987
-0.174569
-0.17625
-0.17797
-0.179705
-0.181458
-0.183227
-0.185005
-0.186789
-0.188575
-0.190359
-0.192133
-0.193894
-0.195636
-0.197354
-0.199044
-0.2007
-0.202313
-0.203876
-0.205385
-0.206835
-0.208225
-0.209556
-0.21083
-0.21205
-0.21322
-0.214344
-0.215428
-0.216474
-0.217483
-0.218456
-0.219389
-0.220279
-0.221117
-0.221895
-0.222602
-0.168071
-0.168579
-0.169924
-0.171454
-0.172954
-0.174547
-0.176238
-0.177963
-0.1797
-0.181456
-0.183226
-0.185005
-0.18679
-0.188578
-0.190363
-0.192139
-0.193901
-0.195645
-0.197364
-0.199056
-0.200713
-0.202328
-0.203892
-0.205401
-0.206851
-0.208241
-0.20957
-0.210841
-0.212057
-0.213223
-0.214344
-0.215423
-0.216463
-0.217466
-0.218432
-0.219358
-0.22024
-0.221071
-0.221843
-0.222547
-0.167827
-0.168397
-0.16984
-0.171407
-0.172914
-0.174521
-0.176225
-0.177954
-0.179694
-0.181453
-0.183225
-0.185005
-0.186792
-0.188582
-0.190368
-0.192146
-0.19391
-0.195655
-0.197377
-0.199071
-0.20073
-0.202347
-0.203912
-0.205422
-0.206872
-0.20826
-0.209587
-0.210855
-0.212068
-0.21323
-0.214346
-0.21542
-0.216454
-0.217451
-0.21841
-0.219329
-0.220204
-0.221028
-0.221795
-0.222497
-0.167531
-0.168184
-0.169747
-0.171355
-0.172869
-0.174492
-0.17621
-0.177945
-0.179688
-0.181449
-0.183223
-0.185005
-0.186794
-0.188586
-0.190375
-0.192155
-0.193921
-0.195668
-0.197391
-0.199087
-0.20075
-0.202369
-0.203936
-0.205447
-0.206896
-0.208283
-0.209608
-0.210873
-0.212082
-0.21324
-0.214351
-0.215419
-0.216448
-0.217439
-0.218391
-0.219304
-0.220172
-0.22099
-0.221751
-0.22245
-0.167176
-0.167942
-0.16965
-0.171297
-0.172818
-0.174461
-0.176194
-0.177935
-0.179681
-0.181446
-0.183221
-0.185005
-0.186796
-0.18859
-0.190382
-0.192164
-0.193933
-0.195682
-0.197407
-0.199107
-0.200773
-0.202394
-0.203964
-0.205475
-0.206924
-0.20831
-0.209633
-0.210895
-0.2121
-0.213253
-0.214359
-0.215421
-0.216444
-0.217428
-0.218375
-0.219281
-0.220142
-0.220954
-0.221711
-0.222408
-0.166753
-0.167673
-0.169552
-0.171235
-0.172761
-0.174427
-0.176177
-0.177924
-0.179674
-0.181442
-0.18322
-0.185004
-0.186798
-0.188596
-0.19039
-0.192175
-0.193946
-0.195698
-0.197426
-0.199129
-0.200798
-0.202423
-0.203995
-0.205508
-0.206957
-0.208341
-0.209662
-0.21092
-0.212121
-0.213269
-0.214369
-0.215426
-0.216442
-0.217421
-0.218361
-0.21926
-0.220116
-0.220922
-0.221675
-0.222369
-0.166252
-0.16738
-0.169458
-0.171168
-0.1727
-0.174392
-0.176159
-0.177912
-0.179666
-0.181438
-0.183218
-0.185004
-0.186801
-0.188601
-0.190399
-0.192187
-0.193962
-0.195715
-0.197446
-0.199153
-0.200827
-0.202455
-0.20403
-0.205544
-0.206993
-0.208376
-0.209694
-0.210948
-0.212144
-0.213287
-0.214381
-0.215432
-0.216442
-0.217415
-0.218349
-0.219243
-0.220092
-0.220893
-0.221642
-0.222334
-0.165657
-0.16707
-0.169375
-0.171099
-0.172635
-0.174356
-0.176141
-0.177899
-0.179658
-0.181434
-0.183215
-0.185003
-0.186803
-0.188608
-0.190408
-0.1922
-0.193978
-0.195734
-0.197467
-0.199179
-0.200857
-0.20249
-0.204068
-0.205584
-0.207033
-0.208415
-0.209729
-0.21098
-0.212171
-0.213307
-0.214396
-0.21544
-0.216445
-0.217411
-0.218339
-0.219227
-0.22007
-0.220866
-0.221611
-0.222302
-0.16495
-0.166752
-0.169305
-0.171027
-0.172567
-0.17432
-0.176122
-0.177887
-0.17965
-0.18143
-0.183213
-0.185002
-0.186806
-0.188613
-0.190418
-0.192213
-0.193995
-0.195753
-0.197489
-0.199206
-0.20089
-0.202528
-0.204109
-0.205626
-0.207076
-0.208456
-0.209768
-0.211014
-0.212199
-0.21333
-0.214412
-0.21545
-0.216448
-0.217408
-0.218331
-0.219213
-0.220051
-0.220842
-0.221584
-0.222272
-0.164101
-0.166461
-0.169247
-0.170948
-0.172496
-0.174285
-0.176104
-0.177873
-0.179642
-0.181425
-0.183208
-0.184999
-0.186807
-0.188618
-0.190426
-0.192225
-0.194011
-0.195771
-0.19751
-0.199233
-0.200923
-0.202566
-0.204152
-0.205671
-0.207121
-0.2085
-0.209808
-0.21105
-0.21223
-0.213354
-0.21443
-0.215462
-0.216453
-0.217407
-0.218324
-0.219201
-0.220034
-0.220821
-0.221559
-0.222246
-0.163073
-0.16621
-0.169217
-0.170868
-0.172425
-0.17425
-0.176084
-0.177858
-0.179631
-0.181419
-0.183201
-0.184993
-0.186805
-0.18862
-0.190432
-0.192236
-0.194025
-0.195787
-0.197529
-0.199259
-0.200956
-0.202605
-0.204195
-0.205717
-0.207168
-0.208546
-0.209851
-0.211088
-0.212262
-0.21338
-0.214449
-0.215474
-0.216459
-0.217408
-0.21832
-0.219191
-0.220019
-0.220802
-0.221538
-0.222223
-0.161817
-0.166024
-0.169226
-0.170791
-0.172354
-0.174212
-0.176059
-0.177837
-0.179614
-0.181405
-0.183186
-0.184978
-0.186795
-0.188615
-0.190432
-0.192242
-0.194035
-0.195799
-0.197546
-0.199284
-0.20099
-0.202646
-0.204242
-0.205767
-0.207219
-0.208596
-0.209898
-0.21113
-0.212298
-0.213409
-0.214472
-0.21549
-0.216468
-0.217411
-0.218317
-0.219184
-0.220008
-0.220787
-0.22152
-0.222204
-0.160395
-0.165874
-0.169231
-0.170699
-0.172277
-0.174171
-0.176029
-0.17781
-0.179588
-0.181379
-0.183157
-0.184953
-0.186777
-0.188602
-0.190426
-0.192241
-0.194038
-0.195811
-0.197567
-0.199312
-0.201026
-0.202692
-0.204295
-0.205824
-0.207277
-0.208651
-0.209948
-0.211175
-0.212339
-0.213445
-0.214501
-0.215513
-0.216485
-0.217423
-0.218323
-0.219184
-0.220004
-0.22078
-0.221509
-0.222192
-0.158662
-0.165826
-0.169275
-0.170599
-0.172188
-0.174128
-0.176014
-0.177807
-0.179589
-0.181382
-0.183171
-0.184978
-0.186804
-0.188632
-0.190456
-0.192271
-0.194066
-0.195841
-0.197602
-0.199352
-0.201074
-0.202748
-0.204357
-0.20589
-0.207345
-0.208719
-0.210011
-0.211228
-0.212382
-0.21348
-0.214529
-0.215535
-0.216504
-0.217438
-0.218336
-0.219195
-0.220013
-0.220787
-0.221516
-0.222199
-0.156601
-0.165861
-0.16936
-0.170498
-0.172067
-0.174017
-0.175908
-0.177699
-0.179484
-0.181286
-0.183087
-0.184903
-0.186745
-0.188597
-0.190448
-0.192284
-0.194091
-0.195868
-0.197637
-0.199403
-0.201141
-0.202828
-0.204446
-0.205985
-0.207445
-0.208826
-0.210118
-0.211327
-0.212471
-0.21356
-0.2146
-0.2156
-0.216562
-0.21749
-0.218383
-0.219238
-0.220053
-0.220823
-0.22155
-0.222231
-0.153712
-0.165669
-0.169531
-0.170647
-0.172247
-0.174217
-0.176109
-0.177893
-0.179668
-0.18146
-0.183252
-0.185039
-0.186842
-0.188676
-0.190525
-0.192364
-0.194169
-0.195936
-0.1977
-0.199472
-0.201221
-0.202916
-0.204535
-0.206072
-0.207529
-0.208904
-0.210192
-0.211396
-0.212535
-0.21362
-0.214657
-0.215652
-0.21661
-0.217533
-0.218422
-0.219273
-0.220084
-0.220852
-0.221576
-0.222255
-0.227567
-0.226312
-0.227106
-0.227353
-0.227164
-0.227022
-0.227024
-0.227178
-0.227479
-0.227925
-0.228512
-0.229248
-0.230118
-0.231103
-0.232157
-0.233242
-0.234295
-0.235262
-0.236093
-0.236731
-0.23714
-0.237275
-0.237099
-0.236595
-0.235777
-0.234664
-0.233303
-0.231738
-0.230022
-0.228227
-0.226393
-0.224546
-0.222737
-0.221019
-0.219416
-0.217937
-0.216571
-0.215307
-0.214119
-0.212962
-0.21179
-0.210539
-0.209148
-0.207553
-0.205701
-0.203536
-0.201018
-0.19811
-0.194797
-0.191066
-0.186927
-0.18239
-0.177483
-0.17223
-0.166674
-0.160851
-0.154809
-0.148591
-0.142241
-0.135797
-0.129306
-0.122804
-0.116331
-0.109918
-0.103601
-0.097406
-0.0913604
-0.0854867
-0.0798058
-0.0743329
-0.0690796
-0.0640672
-0.0592832
-0.0547421
-0.0504507
-0.0464081
-0.042614
-0.0390596
-0.0357279
-0.0326143
-0.0297178
-0.0270389
-0.0245758
-0.022334
-0.0203248
-0.0185644
-0.0170911
-0.0159584
-0.0152295
-0.0150257
-0.015443
-0.0165288
-0.0182731
-0.0205266
-0.0230499
-0.0255387
-0.0277063
-0.0293325
-0.0302899
-0.0305156
-0.0300153
-0.0288281
-0.0270189
-0.0246632
-0.0218782
-0.0188001
-0.0155717
-0.01232
-0.00915036
-0.00613756
-0.00332919
-0.000746247
0.00160709
0.00372751
0.00561324
0.00728573
0.00883728
0.0103797
0.0119552
0.0134565
0.0145823
0.0148528
0.0137515
0.0109557
0.00652228
0.00089415
-0.00520343
-0.0112192
-0.0169225
-0.0222099
-0.026835
-0.0302253
-0.0318803
-0.0312194
-0.0277729
-0.0220934
-0.0153479
-0.00856896
-0.00259651
0.00238746
0.00641672
0.00955754
0.0119589
0.0137692
0.0151069
0.0160769
0.0167564
0.0172117
0.0174901
0.0176319
0.0176658
0.0176175
0.0175051
0.0173465
0.0171541
0.0169411
0.0167164
0.0164898
0.0162674
0.0160559
0.0158594
0.0156831
0.0155314
0.01541
0.0153218
0.0152687
0.0152503
0.0152637
0.0153058
0.0153715
0.0154571
0.0155558
0.0156644
0.0157767
0.0158912
0.016003
0.0161099
0.0162085
0.0163007
0.0163844
0.0164612
0.016529
0.0165901
0.0166425
0.0166887
0.0167262
0.0167566
0.0167756
0.0167833
0.0167749
0.0167503
0.0167031
0.0166329
0.0165341
0.0164079
0.0162511
0.016067
0.015854
0.0156174
0.0153574
0.015081
0.0147894
0.0144894
0.0141823
0.0138742
0.0135663
0.013264
0.012968
0.0126828
0.0124087
0.0121493
0.011904
0.0116748
0.0114587
0.0112543
0.011057
0.0108645
0.0106741
0.0104854
0.0102977
0.0101107
0.00992416
0.00973636
0.0095459
0.0093487
0.00914022
0.00891225
0.00865742
0.00836285
0.00801773
0.0076068
0.007122
0.00655565
0.00591432
0.00520431
0.00444041
0.00363044
0.0027884
0.00192215
0.00105149
0.000204343
-0.000561996
-0.00117885
-0.00157393
-0.00172641
-0.00167904
-0.0015241
-0.00132658
-0.00111503
-0.000876824
-0.000611528
-0.000324722
-2.75856e-05
0.000263251
0.000546105
0.000816576
0.00106909
0.00130334
0.00151603
0.00170792
0.00187673
0.00202374
0.00214756
0.00225005
0.00233061
0.00239144
0.0024326
0.00245653
0.00246366
0.00245651
0.00243569
0.00240344
0.00236049
0.00230878
0.00224892
0.00218249
0.00211001
0.00203272
0.00195109
0.00186611
0.00177826
0.00168829
0.00159686
0.0015045
0.00141193
0.00131959
0.00122811
0.00113756
0.00104853
0.000960803
0.000874748
0.000789809
0.000706043
0.00062257
0.000539127
0.000453408
0.000371715
0.000268379
0.000224845
-2.80846e-05
-0.227164
-0.226047
-0.226321
-0.226292
-0.226055
-0.226032
-0.226187
-0.226481
-0.22689
-0.227413
-0.228052
-0.228815
-0.229695
-0.23068
-0.231727
-0.232797
-0.233827
-0.234768
-0.23557
-0.236178
-0.236559
-0.23667
-0.236478
-0.235967
-0.235151
-0.234051
-0.232709
-0.23117
-0.229486
-0.227722
-0.225921
-0.224109
-0.222334
-0.220644
-0.219065
-0.217602
-0.216248
-0.21499
-0.213803
-0.212644
-0.211465
-0.210207
-0.208808
-0.207205
-0.205348
-0.203179
-0.20066
-0.197754
-0.194445
-0.190721
-0.186591
-0.182065
-0.177172
-0.171934
-0.166395
-0.160589
-0.154567
-0.148368
-0.14204
-0.135619
-0.129151
-0.122675
-0.116228
-0.109843
-0.103554
-0.0973879
-0.0913715
-0.085527
-0.0798752
-0.0744304
-0.0692078
-0.0642292
-0.0594718
-0.0549598
-0.0506996
-0.0466886
-0.0429241
-0.039397
-0.036091
-0.0329996
-0.0301196
-0.0274502
-0.0249896
-0.0227437
-0.0207252
-0.0189469
-0.017449
-0.0162943
-0.0155552
-0.0153585
-0.0158096
-0.01696
-0.0187967
-0.0211664
-0.0238141
-0.0264167
-0.0286715
-0.0303483
-0.0313177
-0.0315237
-0.0309797
-0.0297294
-0.0278394
-0.0253914
-0.0225089
-0.0193332
-0.0160102
-0.0126694
-0.0094184
-0.00633414
-0.00346538
-0.000833567
0.00155541
0.00369476
0.00558166
0.00724799
0.00880028
0.0103554
0.011963
0.0135293
0.014752
0.0151258
0.0140883
0.0112765
0.00673076
0.000920638
-0.00535536
-0.0115347
-0.0173819
-0.0228253
-0.0276396
-0.0311641
-0.0328096
-0.0321669
-0.0287256
-0.0229725
-0.0161113
-0.00921946
-0.00316292
0.00189842
0.00602601
0.00926325
0.011751
0.0136355
0.0150344
0.0160527
0.016769
0.0172511
0.0175482
0.0177023
0.0177437
0.0176994
0.0175886
0.0174299
0.0172362
0.0170213
0.0167943
0.016565
0.0163398
0.0161253
0.0159258
0.0157463
0.0155916
0.0154669
0.0153752
0.0153189
0.0152975
0.015308
0.0153472
0.01541
0.0154924
0.015588
0.015693
0.0158018
0.0159124
0.01602
0.0161229
0.0162179
0.0163065
0.0163868
0.0164604
0.0165255
0.0165844
0.0166352
0.0166802
0.0167174
0.0167479
0.0167677
0.0167768
0.0167702
0.0167476
0.0167023
0.0166334
0.0165352
0.0164088
0.0162509
0.0160647
0.0158487
0.0156081
0.0153432
0.0150612
0.0147637
0.0144572
0.0141432
0.013828
0.0135128
0.013203
0.0128993
0.0126064
0.0123246
0.0120575
0.0118047
0.0115679
0.0113446
0.0111329
0.0109288
0.0107298
0.0105336
0.0103398
0.0101478
0.00995701
0.00976725
0.00957692
0.00938495
0.00918781
0.00898131
0.00875791
0.00851096
0.00822832
0.00789947
0.00750905
0.00704772
0.0065054
0.00588567
0.00519427
0.00444713
0.00365384
0.00283026
0.00198505
0.00113554
0.000303759
-0.000461514
-0.00109719
-0.00152743
-0.00171542
-0.00168674
-0.00152848
-0.00131967
-0.00110481
-0.000881726
-0.000639652
-0.000375198
-9.4762e-05
0.00018339
0.000459395
0.000726847
0.000979572
0.00121643
0.00143357
0.00163103
0.00180614
0.00195976
0.00209028
0.00219925
0.00228603
0.00235267
0.00239926
0.00242813
0.00243984
0.00243674
0.00241955
0.00239048
0.00235027
0.00230083
0.00224279
0.00217776
0.00210627
0.00202958
0.0019482
0.00186316
0.00177499
0.00168457
0.00159257
0.00149963
0.00140646
0.0013136
0.00122168
0.00113082
0.00104167
0.000954042
0.000868142
0.000783533
0.000700248
0.000617267
0.000534626
0.000449849
0.000368226
0.000266879
0.000217251
-1.41984e-05
-0.226704
-0.225943
-0.226041
-0.22607
-0.225857
-0.22575
-0.225787
-0.22599
-0.226362
-0.226895
-0.22757
-0.228371
-0.229277
-0.230273
-0.23132
-0.232369
-0.233378
-0.234293
-0.235067
-0.235648
-0.236002
-0.236091
-0.235884
-0.235365
-0.234551
-0.233461
-0.232136
-0.230619
-0.228963
-0.227228
-0.225456
-0.223676
-0.221932
-0.220269
-0.21871
-0.217263
-0.215918
-0.214664
-0.213475
-0.212309
-0.211121
-0.20985
-0.208438
-0.206824
-0.204955
-0.202778
-0.200253
-0.197344
-0.194036
-0.190316
-0.186193
-0.181677
-0.176796
-0.171573
-0.16605
-0.160263
-0.154261
-0.148084
-0.141778
-0.135382
-0.128941
-0.122492
-0.116073
-0.109718
-0.103459
-0.0973237
-0.091338
-0.0855242
-0.0799029
-0.0744868
-0.0692975
-0.0643493
-0.0596263
-0.055154
-0.0509302
-0.0469548
-0.0432234
-0.0397259
-0.0364465
-0.0333771
-0.0305126
-0.0278518
-0.0253927
-0.0231409
-0.0211086
-0.0193083
-0.0177818
-0.0166006
-0.0158492
-0.0156539
-0.0161282
-0.0173313
-0.0192482
-0.0217236
-0.0244892
-0.0272026
-0.0295437
-0.0312718
-0.0322556
-0.0324458
-0.0318635
-0.0305565
-0.028593
-0.0260613
-0.0230909
-0.0198275
-0.0164195
-0.0129988
-0.0096747
-0.00652606
-0.00360286
-0.000926947
0.00149356
0.0036475
0.00553018
0.00718344
0.00872786
0.0102891
0.0119292
0.0135712
0.0149022
0.0153856
0.0144105
0.0115747
0.0069076
0.000935263
-0.00550616
-0.0118385
-0.0178178
-0.0234026
-0.0284044
-0.0320817
-0.0336966
-0.0330014
-0.0295581
-0.0237476
-0.0167936
-0.00981948
-0.00368351
0.00145137
0.00567172
0.00900414
0.0115774
0.0135351
0.0149941
0.0160593
0.0168108
0.0173179
0.017632
0.0177966
0.0178439
0.017802
0.0176913
0.017531
0.0173348
0.0171166
0.0168861
0.0166531
0.0164241
0.0162058
0.0160025
0.0158194
0.0156611
0.0155326
0.0154372
0.0153771
0.015352
0.0153588
0.0153943
0.0154532
0.0155315
0.0156229
0.0157235
0.0158279
0.0159338
0.0160368
0.0161351
0.016226
0.0163106
0.0163872
0.0164574
0.0165196
0.016576
0.0166249
0.0166686
0.0167051
0.0167356
0.0167561
0.0167663
0.0167617
0.0167411
0.0166979
0.0166305
0.0165334
0.0164072
0.0162487
0.016061
0.0158427
0.0155986
0.0153297
0.0150428
0.01474
0.0144276
0.0141076
0.0137859
0.0134642
0.0131475
0.012837
0.012537
0.0122481
0.0119738
0.0117139
0.01147
0.0112398
0.0110216
0.0108115
0.0106076
0.0104075
0.0102102
0.0100143
0.00981925
0.00962486
0.00943041
0.00923573
0.00903753
0.00883184
0.00861178
0.00837136
0.00809911
0.00778476
0.00741307
0.00697388
0.0064555
0.00585864
0.00518754
0.00445822
0.00368194
0.00287686
0.00205317
0.00122652
0.000413626
-0.000345946
-0.000997338
-0.00146522
-0.00169873
-0.00170343
-0.00155575
-0.00134283
-0.00112073
-0.000901915
-0.000675186
-0.000428465
-0.00016335
0.000104283
0.00037356
0.000638152
0.00089128
0.00113093
0.00135266
0.0015558
0.00173731
0.00189754
0.0020347
0.00215008
0.00224296
0.00231528
0.00236716
0.00240084
0.00241695
0.00241776
0.00240406
0.00237805
0.0023405
0.00229327
0.00223703
0.00217339
0.0021029
0.00202685
0.00194578
0.00186079
0.00177244
0.00168169
0.00158925
0.0014958
0.00140212
0.00130882
0.00121652
0.00112541
0.00103616
0.000948493
0.000862624
0.000778211
0.000695281
0.000612717
0.000530733
0.000446584
0.000364429
0.000264942
0.000208693
-2.43263e-07
-0.226362
-0.22589
-0.225917
-0.225989
-0.22583
-0.225722
-0.225748
-0.225917
-0.226226
-0.22668
-0.227281
-0.228023
-0.228895
-0.229873
-0.230909
-0.231946
-0.232942
-0.233838
-0.234587
-0.235143
-0.235473
-0.235543
-0.235322
-0.234798
-0.233985
-0.232905
-0.231595
-0.230099
-0.228467
-0.226757
-0.22501
-0.223258
-0.221541
-0.2199
-0.218358
-0.216923
-0.215584
-0.21433
-0.213136
-0.21196
-0.210757
-0.209469
-0.20804
-0.206408
-0.204524
-0.202333
-0.199798
-0.196883
-0.193571
-0.189853
-0.185735
-0.181227
-0.176356
-0.171147
-0.165641
-0.159873
-0.153891
-0.147736
-0.141455
-0.135085
-0.128672
-0.122252
-0.115865
-0.109541
-0.103314
-0.09721
-0.0912562
-0.0854747
-0.0798862
-0.0745037
-0.0693527
-0.0644309
-0.0597548
-0.0553277
-0.0511449
-0.0472087
-0.0435128
-0.0400463
-0.0367938
-0.033746
-0.030896
-0.0282427
-0.025784
-0.0235243
-0.0214742
-0.0196477
-0.0180908
-0.016882
-0.0161148
-0.0159156
-0.0164026
-0.0176437
-0.0196264
-0.0221963
-0.0250727
-0.0278937
-0.0303204
-0.0321011
-0.0331026
-0.0332824
-0.0326682
-0.0313117
-0.0292824
-0.0266759
-0.0236273
-0.020286
-0.0168024
-0.0133104
-0.00992114
-0.00671478
-0.00374232
-0.00102633
0.00142241
0.00358789
0.00546393
0.00710244
0.00863494
0.0101965
0.0118677
0.0135896
0.0150329
0.0156209
0.0147004
0.0118311
0.00704655
0.000943613
-0.00565111
-0.0121284
-0.0182292
-0.0239361
-0.0291116
-0.0329687
-0.0345783
-0.0337722
-0.0303127
-0.0244594
-0.0174296
-0.0103864
-0.00416472
0.00104727
0.0053601
0.00878807
0.0114461
0.0134755
0.0149924
0.0161021
0.0168862
0.0174157
0.0177442
0.017917
0.017968
0.0179264
0.0178138
0.0176502
0.0174499
0.0172271
0.0169917
0.0167539
0.0165201
0.0162971
0.0160893
0.0159019
0.0157396
0.015607
0.0155074
0.0154431
0.0154138
0.0154162
0.0154471
0.0155014
0.0155747
0.0156611
0.0157565
0.0158557
0.0159563
0.016054
0.0161473
0.0162335
0.0163137
0.0163863
0.0164526
0.0165116
0.0165651
0.0166118
0.0166538
0.0166894
0.0167195
0.0167403
0.0167515
0.0167486
0.0167299
0.0166888
0.0166232
0.0165275
0.016402
0.0162437
0.0160552
0.0158354
0.0155889
0.0153167
0.0150259
0.0147188
0.0144016
0.0140764
0.0137493
0.0134219
0.0130994
0.0127828
0.0124767
0.0121816
0.011901
0.0116348
0.0113846
0.0111486
0.0109251
0.0107108
0.010504
0.0103021
0.0101028
0.00990355
0.00970327
0.00950217
0.00930079
0.0091005
0.00889882
0.00869228
0.00847415
0.008239
0.0079759
0.00767472
0.00732042
0.0069023
0.00640755
0.00583454
0.00518571
0.00447587
0.00371719
0.00293055
0.00212833
0.00132544
0.00053417
-0.000215112
-0.000877584
-0.00138277
-0.0016696
-0.00172268
-0.00160263
-0.00139707
-0.00116955
-0.000946155
-0.000724107
-0.000487619
-0.00023372
2.75607e-05
0.000290221
0.000552499
0.000806539
0.0010493
0.00127581
0.00148468
0.00167252
0.00183922
0.00198283
0.00210435
0.00220305
0.00228073
0.00233757
0.00237574
0.00239591
0.00240034
0.00238987
0.00236668
0.00233159
0.00228639
0.00223186
0.00216952
0.00210001
0.00202463
0.00194396
0.00185912
0.00177073
0.0016798
0.00158704
0.00149322
0.0013992
0.00130558
0.00121301
0.00112169
0.00103227
0.000944476
0.000858612
0.000774311
0.00069159
0.000609232
0.000527539
0.000443592
0.000360782
0.000263206
0.000199634
1.41288e-05
-0.22605
-0.225791
-0.225794
-0.22589
-0.2258
-0.225734
-0.225794
-0.225982
-0.226297
-0.22674
-0.227309
-0.227989
-0.228773
-0.22966
-0.23061
-0.23158
-0.232526
-0.233386
-0.23411
-0.234646
-0.234961
-0.235019
-0.234792
-0.234267
-0.233459
-0.232391
-0.231097
-0.229621
-0.228011
-0.226322
-0.224596
-0.222866
-0.22117
-0.219546
-0.218017
-0.216587
-0.21525
-0.213991
-0.212786
-0.211595
-0.210373
-0.209063
-0.207611
-0.205956
-0.204051
-0.201842
-0.199292
-0.196365
-0.193047
-0.189327
-0.185211
-0.180709
-0.175847
-0.170652
-0.165162
-0.159413
-0.153453
-0.147322
-0.141066
-0.134725
-0.128342
-0.121954
-0.115599
-0.109308
-0.103114
-0.0970434
-0.0911232
-0.0853764