/*--------------------------------*- C++ -*----------------------------------*\
| =========                 |                                                 |
| \\      /  F ield         | OpenFOAM: The Open Source CFD Toolbox           |
|  \\    /   O peration     | Version:  2306                                  |
|   \\  /    A nd           | Website:  www.openfoam.com                      |
|    \\/     M anipulation  |                                                 |
\*---------------------------------------------------------------------------*/
FoamFile
{
    version     2.0;
    format      ascii;
    arch        "LSB;label=32;scalar=64";
    class       surfaceScalarField;
    location    "500";
    object      phi;
}
// * * * * * * * * * * * * * * * * * * * * * * * * * * * * * * * * * * * * * //

dimensions      [0 3 -1 0 0 0 0];

oriented        oriented;

internalField   nonuniform List<scalar> 
50780
(
2.42445e-07
7.55517e-09
2.35508e-07
6.93647e-09
2.28987e-07
6.52124e-09
2.22558e-07
6.42862e-09
2.16225e-07
6.33315e-09
2.10024e-07
6.20162e-09
2.03972e-07
6.05201e-09
1.98078e-07
5.89355e-09
1.92345e-07
5.73294e-09
1.86777e-07
5.56839e-09
1.81383e-07
5.39421e-09
1.76151e-07
5.23167e-09
1.71061e-07
5.08944e-09
1.66124e-07
4.93697e-09
1.6137e-07
4.754e-09
1.56837e-07
4.5334e-09
1.52533e-07
4.30385e-09
1.48438e-07
4.09482e-09
1.44548e-07
3.89016e-09
1.40889e-07
3.6593e-09
1.37511e-07
3.37739e-09
1.34454e-07
3.05748e-09
1.31725e-07
2.72925e-09
1.29322e-07
2.40303e-09
1.27243e-07
2.07817e-09
1.25482e-07
1.76101e-09
1.24019e-07
1.46325e-09
1.22823e-07
1.1961e-09
1.21856e-07
9.66716e-10
1.21084e-07
7.72692e-10
1.20475e-07
6.08353e-10
1.20007e-07
4.67926e-10
1.19662e-07
3.45417e-10
1.1943e-07
2.31668e-10
1.1931e-07
1.20214e-10
1.19297e-07
1.25301e-11
1.19384e-07
-8.70341e-11
1.19659e-07
-2.74744e-10
1.20073e-07
-4.14017e-10
-1.72631e-09
1.218e-07
2.51392e-07
6.16322e-09
2.51286e-07
7.04261e-09
2.50836e-07
6.97091e-09
2.50198e-07
7.0669e-09
2.49338e-07
7.19269e-09
2.48281e-07
7.25928e-09
2.47051e-07
7.28151e-09
2.4567e-07
7.27454e-09
2.44151e-07
7.25161e-09
2.42508e-07
7.21141e-09
2.40756e-07
7.1462e-09
2.38922e-07
7.0662e-09
2.37032e-07
6.97954e-09
2.35094e-07
6.87519e-09
2.33105e-07
6.74246e-09
2.31059e-07
6.57933e-09
2.28966e-07
6.39721e-09
2.26856e-07
6.20477e-09
2.24748e-07
5.99752e-09
2.22646e-07
5.76171e-09
2.20545e-07
5.47873e-09
2.18455e-07
5.14754e-09
2.16398e-07
4.78622e-09
2.1439e-07
4.41035e-09
2.12441e-07
4.02721e-09
2.10555e-07
3.64706e-09
2.08745e-07
3.27341e-09
2.07019e-07
2.92171e-09
2.05379e-07
2.60702e-09
2.03825e-07
2.32674e-09
2.02357e-07
2.07613e-09
2.00976e-07
1.84881e-09
1.99683e-07
1.63857e-09
1.98477e-07
1.43806e-09
1.97357e-07
1.23952e-09
1.96336e-07
1.03373e-09
1.95443e-07
8.06324e-10
1.94694e-07
4.74464e-10
1.9424e-07
3.95023e-11
-1.26549e-09
1.9378e-07
2.51317e-07
4.84583e-09
2.51895e-07
6.46504e-09
2.52314e-07
6.55206e-09
2.5262e-07
6.76073e-09
2.52816e-07
6.99628e-09
2.52948e-07
7.12769e-09
2.53035e-07
7.19433e-09
2.53081e-07
7.22858e-09
2.53082e-07
7.25066e-09
2.53037e-07
7.25653e-09
2.52947e-07
7.23566e-09
2.52809e-07
7.20478e-09
2.52617e-07
7.17095e-09
2.52373e-07
7.11958e-09
2.52072e-07
7.04312e-09
2.5171e-07
6.94161e-09
2.51286e-07
6.82125e-09
2.50809e-07
6.68194e-09
2.50284e-07
6.52259e-09
2.49706e-07
6.33942e-09
2.49063e-07
6.12186e-09
2.48345e-07
5.86586e-09
2.47553e-07
5.57769e-09
2.46694e-07
5.26906e-09
2.45773e-07
4.94904e-09
2.44791e-07
4.62906e-09
2.4375e-07
4.31423e-09
2.42661e-07
4.01039e-09
2.41543e-07
3.7252e-09
2.40407e-07
3.46221e-09
2.39264e-07
3.21972e-09
2.38121e-07
2.99113e-09
2.36989e-07
2.77078e-09
2.35875e-07
2.55172e-09
2.3479e-07
2.32475e-09
2.33746e-07
2.07781e-09
2.32764e-07
1.78844e-09
2.31857e-07
1.38092e-09
2.31098e-07
7.99316e-10
-4.31094e-10
2.30263e-07
2.51035e-07
3.81051e-09
2.51709e-07
5.79156e-09
2.52215e-07
6.04564e-09
2.52639e-07
6.337e-09
2.53014e-07
6.62133e-09
2.53359e-07
6.78257e-09
2.53686e-07
6.86776e-09
2.53995e-07
6.91956e-09
2.54297e-07
6.9483e-09
2.54599e-07
6.95413e-09
2.54873e-07
6.9615e-09
2.55113e-07
6.9652e-09
2.55338e-07
6.94606e-09
2.55548e-07
6.90907e-09
2.5574e-07
6.85112e-09
2.5591e-07
6.77167e-09
2.56056e-07
6.67538e-09
2.56179e-07
6.55881e-09
2.56279e-07
6.42329e-09
2.5635e-07
6.26829e-09
2.56389e-07
6.08232e-09
2.56392e-07
5.86268e-09
2.56355e-07
5.61485e-09
2.56276e-07
5.34882e-09
2.56152e-07
5.07308e-09
2.55983e-07
4.79717e-09
2.55769e-07
4.52865e-09
2.55507e-07
4.27282e-09
2.55199e-07
4.03282e-09
2.5485e-07
3.81087e-09
2.54464e-07
3.60554e-09
2.54045e-07
3.41083e-09
2.53595e-07
3.22057e-09
2.5312e-07
3.02606e-09
2.52628e-07
2.81752e-09
2.52124e-07
2.58106e-09
2.51623e-07
2.29002e-09
2.51131e-07
1.87274e-09
2.50669e-07
1.2611e-09
1.46945e-10
2.50091e-07
2.50806e-07
3.00459e-09
2.51456e-07
5.1417e-09
2.51969e-07
5.53278e-09
2.52428e-07
5.87716e-09
2.52859e-07
6.19052e-09
2.5327e-07
6.37145e-09
2.53669e-07
6.46951e-09
2.54057e-07
6.53159e-09
2.54436e-07
6.56909e-09
2.54807e-07
6.58302e-09
2.55173e-07
6.59527e-09
2.55533e-07
6.60524e-09
2.55884e-07
6.59532e-09
2.56226e-07
6.56702e-09
2.56558e-07
6.51925e-09
2.56878e-07
6.45104e-09
2.57193e-07
6.36062e-09
2.57492e-07
6.25998e-09
2.57767e-07
6.14809e-09
2.58027e-07
6.00801e-09
2.58271e-07
5.83837e-09
2.58495e-07
5.63936e-09
2.58694e-07
5.41562e-09
2.58867e-07
5.17553e-09
2.59014e-07
4.92649e-09
2.59134e-07
4.67638e-09
2.59231e-07
4.4326e-09
2.59303e-07
4.20068e-09
2.59352e-07
3.9836e-09
2.5938e-07
3.78293e-09
2.59388e-07
3.59706e-09
2.59378e-07
3.42078e-09
2.59351e-07
3.24796e-09
2.59307e-07
3.0694e-09
2.59251e-07
2.87401e-09
2.59186e-07
2.64608e-09
2.59118e-07
2.35816e-09
2.59045e-07
1.94509e-09
2.58965e-07
1.34199e-09
3.44525e-10
2.58767e-07
2.50605e-07
2.39938e-09
2.51212e-07
4.53498e-09
2.51709e-07
5.03585e-09
2.52178e-07
5.40827e-09
2.52631e-07
5.73709e-09
2.53071e-07
5.9317e-09
2.53501e-07
6.03919e-09
2.53924e-07
6.10863e-09
2.5434e-07
6.15291e-09
2.54749e-07
6.17401e-09
2.55155e-07
6.18943e-09
2.55559e-07
6.20129e-09
2.55958e-07
6.19613e-09
2.56352e-07
6.17341e-09
2.56739e-07
6.1326e-09
2.57117e-07
6.073e-09
2.57485e-07
5.99269e-09
2.57844e-07
5.90096e-09
2.58193e-07
5.79888e-09
2.58529e-07
5.67198e-09
2.5885e-07
5.51732e-09
2.59153e-07
5.33582e-09
2.59437e-07
5.13172e-09
2.597e-07
4.91237e-09
2.59942e-07
4.68456e-09
2.60164e-07
4.4552e-09
2.60365e-07
4.23089e-09
2.60549e-07
4.01674e-09
2.60717e-07
3.81556e-09
2.60872e-07
3.6286e-09
2.61014e-07
3.45429e-09
2.61147e-07
3.2878e-09
2.61272e-07
3.12297e-09
2.61391e-07
2.95073e-09
2.61505e-07
2.75936e-09
2.61619e-07
2.53223e-09
2.61735e-07
2.24251e-09
2.61847e-07
1.83264e-09
2.61944e-07
1.2457e-09
3.47269e-10
2.61941e-07
2.50459e-07
1.94083e-09
2.51012e-07
3.98156e-09
2.51483e-07
4.56514e-09
2.51943e-07
4.94842e-09
2.52399e-07
5.28021e-09
2.52849e-07
5.48184e-09
2.53294e-07
5.59447e-09
2.53735e-07
5.66804e-09
2.54171e-07
5.71671e-09
2.54602e-07
5.74314e-09
2.5503e-07
5.76124e-09
2.55457e-07
5.77433e-09
2.55881e-07
5.77234e-09
2.563e-07
5.75382e-09
2.56714e-07
5.71853e-09
2.57121e-07
5.66598e-09
2.57519e-07
5.59473e-09
2.57909e-07
5.51132e-09
2.5829e-07
5.41715e-09
2.58661e-07
5.30118e-09
2.59019e-07
5.15991e-09
2.5936e-07
4.99428e-09
2.59684e-07
4.80802e-09
2.59989e-07
4.60745e-09
2.60275e-07
4.39883e-09
2.60541e-07
4.18832e-09
2.60791e-07
3.98175e-09
2.61024e-07
3.78363e-09
2.61243e-07
3.59652e-09
2.6145e-07
3.42131e-09
2.61648e-07
3.2564e-09
2.61838e-07
3.09724e-09
2.62024e-07
2.93769e-09
2.62205e-07
2.76887e-09
2.62386e-07
2.57897e-09
2.62567e-07
2.35116e-09
2.6275e-07
2.05972e-09
2.62928e-07
1.65459e-09
2.63086e-07
1.08759e-09
2.71442e-10
2.63162e-07
2.50354e-07
1.58699e-09
2.50854e-07
3.48125e-09
2.51298e-07
4.12177e-09
2.51741e-07
4.50443e-09
2.52192e-07
4.82966e-09
2.52642e-07
5.03234e-09
2.5309e-07
5.1462e-09
2.53537e-07
5.22071e-09
2.53983e-07
5.27117e-09
2.54425e-07
5.30067e-09
2.54866e-07
5.32041e-09
2.55306e-07
5.33416e-09
2.55744e-07
5.33442e-09
2.56179e-07
5.31932e-09
2.56608e-07
5.28873e-09
2.57032e-07
5.24231e-09
2.57448e-07
5.17907e-09
2.57855e-07
5.10358e-09
2.58255e-07
5.01707e-09
2.58646e-07
4.91114e-09
2.59023e-07
4.78232e-09
2.59386e-07
4.6315e-09
2.59732e-07
4.46192e-09
2.6006e-07
4.27904e-09
2.60371e-07
4.08848e-09
2.60663e-07
3.89573e-09
2.60939e-07
3.70593e-09
2.612e-07
3.52307e-09
2.61447e-07
3.34933e-09
2.61683e-07
3.18528e-09
2.6191e-07
3.02923e-09
2.6213e-07
2.87686e-09
2.62346e-07
2.72207e-09
2.62559e-07
2.5562e-09
2.6277e-07
2.36761e-09
2.62981e-07
2.13974e-09
2.63193e-07
1.84834e-09
2.63397e-07
1.45035e-09
2.63579e-07
9.05951e-10
1.59896e-10
2.6369e-07
2.50278e-07
1.30891e-09
2.50725e-07
3.03388e-09
2.51147e-07
3.70045e-09
2.51575e-07
4.07623e-09
2.52016e-07
4.3884e-09
2.52461e-07
4.58762e-09
2.52907e-07
4.69995e-09
2.53355e-07
4.77296e-09
2.53803e-07
4.82303e-09
2.5425e-07
4.85357e-09
2.54697e-07
4.87371e-09
2.55144e-07
4.88735e-09
2.55589e-07
4.88899e-09
2.56032e-07
4.87656e-09
2.56471e-07
4.84994e-09
2.56904e-07
4.80892e-09
2.5733e-07
4.7528e-09
2.57749e-07
4.68478e-09
2.5816e-07
4.60582e-09
2.58562e-07
4.50948e-09
2.58952e-07
4.39255e-09
2.59327e-07
4.25579e-09
2.59687e-07
4.10207e-09
2.6003e-07
3.93605e-09
2.60356e-07
3.76274e-09
2.60665e-07
3.58701e-09
2.60957e-07
3.41334e-09
2.61235e-07
3.2452e-09
2.615e-07
3.08442e-09
2.61754e-07
2.93126e-09
2.61999e-07
2.78396e-09
2.62238e-07
2.63834e-09
2.62471e-07
2.4884e-09
2.62702e-07
2.32572e-09
2.6293e-07
2.13895e-09
2.63158e-07
1.91211e-09
2.63384e-07
1.62272e-09
2.636e-07
1.23408e-09
2.63792e-07
7.13804e-10
2.86829e-11
2.63923e-07
2.50223e-07
1.08609e-09
2.50623e-07
2.63325e-09
2.51025e-07
3.29912e-09
2.51438e-07
3.66269e-09
2.5187e-07
3.95694e-09
2.52308e-07
4.14895e-09
2.52751e-07
4.25767e-09
2.53196e-07
4.32758e-09
2.53643e-07
4.37576e-09
2.54091e-07
4.40585e-09
2.54539e-07
4.42541e-09
2.54988e-07
4.43829e-09
2.55437e-07
4.44051e-09
2.55883e-07
4.43005e-09
2.56327e-07
4.40675e-09
2.56765e-07
4.37046e-09
2.57197e-07
4.32069e-09
2.57622e-07
4.25965e-09
2.5804e-07
4.18805e-09
2.58449e-07
4.10094e-09
2.58846e-07
3.99544e-09
2.59229e-07
3.87215e-09
2.59598e-07
3.73359e-09
2.5995e-07
3.58377e-09
2.60286e-07
3.42706e-09
2.60605e-07
3.26773e-09
2.60909e-07
3.10968e-09
2.61198e-07
2.95584e-09
2.61475e-07
2.80772e-09
2.61741e-07
2.66531e-09
2.61998e-07
2.52676e-09
2.62248e-07
2.38801e-09
2.62493e-07
2.24318e-09
2.62735e-07
2.08413e-09
2.62974e-07
1.8999e-09
2.63211e-07
1.67531e-09
2.63444e-07
1.38975e-09
2.63666e-07
1.01222e-09
2.63863e-07
5.16797e-10
-1.14365e-10
2.64006e-07
2.50182e-07
9.03985e-10
2.50543e-07
2.27271e-09
2.50926e-07
2.91603e-09
2.51326e-07
3.26209e-09
2.51748e-07
3.53478e-09
2.52181e-07
3.71628e-09
2.52619e-07
3.81967e-09
2.53061e-07
3.88535e-09
2.53506e-07
3.93064e-09
2.53953e-07
3.95933e-09
2.54401e-07
3.97768e-09
2.5485e-07
3.98938e-09
2.55298e-07
3.99166e-09
2.55746e-07
3.98264e-09
2.5619e-07
3.96212e-09
2.56631e-07
3.93002e-09
2.57066e-07
3.88595e-09
2.57494e-07
3.83145e-09
2.57915e-07
3.767e-09
2.58327e-07
3.68879e-09
2.58728e-07
3.59428e-09
2.59116e-07
3.48395e-09
2.5949e-07
3.35996e-09
2.59848e-07
3.22572e-09
2.6019e-07
3.08503e-09
2.60516e-07
2.94158e-09
2.60827e-07
2.79868e-09
2.61124e-07
2.65879e-09
2.61409e-07
2.52309e-09
2.61683e-07
2.39132e-09
2.61948e-07
2.26154e-09
2.62206e-07
2.1298e-09
2.62459e-07
1.99039e-09
2.62708e-07
1.83546e-09
2.62953e-07
1.65452e-09
2.63195e-07
1.43332e-09
2.63431e-07
1.15319e-09
2.63655e-07
7.88108e-10
2.63855e-07
3.17706e-10
-2.65611e-10
2.64006e-07
2.50152e-07
7.52037e-10
2.50478e-07
1.94616e-09
2.50845e-07
2.54952e-09
2.51234e-07
2.87273e-09
2.51648e-07
3.12105e-09
2.52075e-07
3.28915e-09
2.52509e-07
3.38562e-09
2.52948e-07
3.44622e-09
2.53391e-07
3.48792e-09
2.53836e-07
3.51456e-09
2.54282e-07
3.53133e-09
2.5473e-07
3.54169e-09
2.55178e-07
3.54374e-09
2.55625e-07
3.53583e-09
2.56069e-07
3.51775e-09
2.5651e-07
3.48944e-09
2.56945e-07
3.45061e-09
2.57374e-07
3.40231e-09
2.57796e-07
3.34484e-09
2.5821e-07
3.27524e-09
2.58613e-07
3.19136e-09
2.59003e-07
3.09353e-09
2.59379e-07
2.98359e-09
2.59741e-07
2.86441e-09
2.60087e-07
2.73922e-09
2.60417e-07
2.61117e-09
2.60733e-07
2.48303e-09
2.61035e-07
2.35679e-09
2.61324e-07
2.2333e-09
2.61604e-07
2.11208e-09
2.61874e-07
1.9911e-09
2.62137e-07
1.86655e-09
2.62395e-07
1.73287e-09
2.62648e-07
1.58254e-09
2.62897e-07
1.40562e-09
2.63141e-07
1.18886e-09
2.63379e-07
9.1549e-10
2.63603e-07
5.63828e-10
2.63803e-07
1.18237e-10
-4.22004e-10
2.63959e-07
2.5013e-07
6.22497e-10
2.50428e-07
1.64806e-09
2.50779e-07
2.19787e-09
2.51159e-07
2.49307e-09
2.51565e-07
2.71479e-09
2.51987e-07
2.86697e-09
2.52418e-07
2.95504e-09
2.52854e-07
3.00981e-09
2.53295e-07
3.04739e-09
2.53738e-07
3.07153e-09
2.54183e-07
3.08651e-09
2.54629e-07
3.09547e-09
2.55075e-07
3.09717e-09
2.55521e-07
3.09023e-09
2.55964e-07
3.07439e-09
2.56404e-07
3.04964e-09
2.56839e-07
3.01575e-09
2.57268e-07
2.97342e-09
2.5769e-07
2.92282e-09
2.58104e-07
2.86166e-09
2.58507e-07
2.78812e-09
2.58898e-07
2.70243e-09
2.59275e-07
2.60611e-09
2.59638e-07
2.50154e-09
2.59986e-07
2.39142e-09
2.60319e-07
2.27837e-09
2.60637e-07
2.16463e-09
2.60942e-07
2.05178e-09
2.61235e-07
1.94032e-09
2.61518e-07
1.82958e-09
2.61791e-07
1.71747e-09
2.62058e-07
1.60025e-09
2.62318e-07
1.4726e-09
2.62573e-07
1.32734e-09
2.62823e-07
1.1551e-09
2.63068e-07
9.43696e-10
2.63306e-07
6.78181e-10
2.63529e-07
3.4063e-10
2.63728e-07
-8.06626e-11
-5.81893e-10
2.63888e-07
2.50113e-07
5.09642e-10
2.50387e-07
1.37343e-09
2.50726e-07
1.85932e-09
2.51097e-07
2.12174e-09
2.51497e-07
2.31503e-09
2.51915e-07
2.44917e-09
2.52343e-07
2.52744e-09
2.52777e-07
2.57572e-09
2.53215e-07
2.60873e-09
2.53657e-07
2.63001e-09
2.541e-07
2.64307e-09
2.54545e-07
2.65064e-09
2.5499e-07
2.65198e-09
2.55434e-07
2.64593e-09
2.55877e-07
2.63225e-09
2.56315e-07
2.61094e-09
2.56749e-07
2.58183e-09
2.57177e-07
2.54534e-09
2.57599e-07
2.50157e-09
2.58011e-07
2.44875e-09
2.58414e-07
2.38536e-09
2.58805e-07
2.31153e-09
2.59183e-07
2.2285e-09
2.59546e-07
2.1382e-09
2.59895e-07
2.04281e-09
2.60229e-07
1.94443e-09
2.60548e-07
1.84483e-09
2.60855e-07
1.74515e-09
2.6115e-07
1.64561e-09
2.61434e-07
1.54531e-09
2.61709e-07
1.44213e-09
2.61977e-07
1.33244e-09
2.62239e-07
1.21112e-09
2.62495e-07
1.07137e-09
2.62745e-07
9.04447e-10
2.6299e-07
6.99198e-10
2.63225e-07
4.42432e-10
2.63447e-07
1.1943e-10
2.63644e-07
-2.78239e-10
-7.43813e-10
2.63806e-07
2.501e-07
4.09189e-10
2.50356e-07
1.11781e-09
2.50683e-07
1.53207e-09
2.51048e-07
1.75745e-09
2.51442e-07
1.92081e-09
2.51856e-07
2.03513e-09
2.52281e-07
2.10236e-09
2.52713e-07
2.14355e-09
2.5315e-07
2.17162e-09
2.5359e-07
2.18976e-09
2.54033e-07
2.20078e-09
2.54476e-07
2.20698e-09
2.5492e-07
2.20797e-09
2.55363e-07
2.20281e-09
2.55804e-07
2.19127e-09
2.56242e-07
2.17335e-09
2.56675e-07
2.14892e-09
2.57102e-07
2.11823e-09
2.57522e-07
2.0813e-09
2.57934e-07
2.03677e-09
2.58336e-07
1.98341e-09
2.58726e-07
1.92127e-09
2.59104e-07
1.8513e-09
2.59467e-07
1.775e-09
2.59816e-07
1.69407e-09
2.6015e-07
1.61013e-09
2.6047e-07
1.52447e-09
2.60778e-07
1.43782e-09
2.61073e-07
1.35011e-09
2.61358e-07
1.26026e-09
2.61634e-07
1.16611e-09
2.61902e-07
1.06412e-09
2.62164e-07
9.49428e-10
2.6242e-07
8.15617e-10
2.6267e-07
6.54569e-10
2.62913e-07
4.56172e-10
2.63146e-07
2.08875e-10
2.63365e-07
-9.93011e-11
2.63561e-07
-4.74131e-10
-9.07025e-10
2.63724e-07
2.50091e-07
3.17881e-10
2.50332e-07
8.77273e-10
2.5065e-07
1.21427e-09
2.51008e-07
1.399e-09
2.51398e-07
1.53117e-09
2.51809e-07
1.62424e-09
2.52232e-07
1.67936e-09
2.52662e-07
1.71295e-09
2.53098e-07
1.73576e-09
2.53537e-07
1.75052e-09
2.53979e-07
1.7594e-09
2.54421e-07
1.76427e-09
2.54864e-07
1.76494e-09
2.55307e-07
1.76066e-09
2.55747e-07
1.75127e-09
2.56183e-07
1.73672e-09
2.56615e-07
1.71693e-09
2.57041e-07
1.69203e-09
2.57461e-07
1.66197e-09
2.57872e-07
1.62574e-09
2.58273e-07
1.58235e-09
2.58662e-07
1.53177e-09
2.59039e-07
1.4747e-09
2.59402e-07
1.41223e-09
2.5975e-07
1.34559e-09
2.60084e-07
1.27592e-09
2.60405e-07
1.20406e-09
2.60712e-07
1.13036e-09
2.61008e-07
1.05445e-09
2.61293e-07
9.75103e-10
2.61569e-07
8.90097e-10
2.61837e-07
7.96032e-10
2.62098e-07
6.88271e-10
2.62353e-07
5.60816e-10
2.62601e-07
4.06178e-10
2.62842e-07
2.15256e-10
2.63073e-07
-2.19973e-11
2.63289e-07
-3.1523e-10
2.63483e-07
-6.68039e-10
-1.07074e-09
2.63647e-07
2.50085e-07
2.33183e-10
2.50314e-07
6.48283e-10
2.50624e-07
9.04051e-10
2.50978e-07
1.04517e-09
2.51364e-07
1.14517e-09
2.51772e-07
1.21589e-09
2.52193e-07
1.258e-09
2.52623e-07
1.28356e-09
2.53058e-07
1.30086e-09
2.53496e-07
1.31205e-09
2.53937e-07
1.31872e-09
2.54379e-07
1.32227e-09
2.54821e-07
1.32264e-09
2.55262e-07
1.31928e-09
2.55702e-07
1.31203e-09
2.56138e-07
1.30086e-09
2.56569e-07
1.2857e-09
2.56994e-07
1.26658e-09
2.57413e-07
1.24344e-09
2.57823e-07
1.21553e-09
2.58223e-07
1.18207e-09
2.58612e-07
1.14299e-09
2.58988e-07
1.09872e-09
2.5935e-07
1.04996e-09
2.59698e-07
9.97493e-10
2.60032e-07
9.41994e-10
2.60352e-07
8.83864e-10
2.6066e-07
8.23073e-10
2.60955e-07
7.5898e-10
2.6124e-07
6.90205e-10
2.61516e-07
6.14493e-10
2.61783e-07
5.28566e-10
2.62043e-07
4.2804e-10
2.62297e-07
3.07332e-10
2.62543e-07
1.59586e-10
2.62782e-07
-2.33325e-11
2.6301e-07
-2.5008e-10
2.63223e-07
-5.28331e-10
2.63415e-07
-8.59947e-10
-1.23472e-09
2.63579e-07
2.5008e-07
1.53063e-10
2.50301e-07
4.2766e-10
2.50605e-07
5.99516e-10
2.50956e-07
6.94819e-10
2.51339e-07
7.61891e-10
2.51745e-07
8.09456e-10
2.52165e-07
8.37885e-10
2.52594e-07
8.55077e-10
2.53028e-07
8.66668e-10
2.53466e-07
8.74144e-10
2.53906e-07
8.78541e-10
2.54348e-07
8.80799e-10
2.54789e-07
8.80886e-10
2.5523e-07
8.78445e-10
2.55669e-07
8.73353e-10
2.56104e-07
8.65576e-10
2.56535e-07
8.55033e-10
2.5696e-07
8.41718e-10
2.57378e-07
8.25539e-10
2.57787e-07
8.05966e-10
2.58187e-07
7.8244e-10
2.58575e-07
7.54818e-10
2.5895e-07
7.23284e-10
2.59312e-07
6.88168e-10
2.5966e-07
6.49809e-10
2.59993e-07
6.08429e-10
2.60313e-07
5.64001e-10
2.6062e-07
5.16129e-10
2.60915e-07
4.63908e-10
2.612e-07
4.05806e-10
2.61475e-07
3.39554e-10
2.61741e-07
2.61997e-10
2.62e-07
1.69013e-10
2.62252e-07
5.54371e-11
2.62497e-07
-8.49607e-11
2.62733e-07
-2.59397e-10
2.62958e-07
-4.75279e-10
2.63168e-07
-7.38607e-10
2.63358e-07
-1.04984e-09
-1.39857e-09
2.63522e-07
2.50077e-07
7.58253e-11
2.50292e-07
2.1247e-10
2.50593e-07
2.98771e-10
2.50941e-07
3.46773e-10
2.51323e-07
3.80414e-10
2.51728e-07
4.04297e-10
2.52147e-07
4.18587e-10
2.52575e-07
4.27186e-10
2.53009e-07
4.32944e-10
2.53446e-07
4.36612e-10
2.53886e-07
4.38696e-10
2.54327e-07
4.39658e-10
2.54769e-07
4.39481e-10
2.55209e-07
4.37972e-10
2.55647e-07
4.35048e-10
2.56082e-07
4.30665e-10
2.56513e-07
4.24748e-10
2.56937e-07
4.17246e-10
2.57355e-07
4.08056e-10
2.57764e-07
3.9685e-10
2.58163e-07
3.83255e-10
2.58551e-07
3.67079e-10
2.58926e-07
3.48258e-10
2.59287e-07
3.26755e-10
2.59634e-07
3.0248e-10
2.59967e-07
2.75206e-10
2.60287e-07
2.44491e-10
2.60594e-07
2.09577e-10
2.60888e-07
1.69301e-10
2.61172e-07
1.21993e-10
2.61446e-07
6.53714e-11
2.61712e-07
-3.58702e-12
2.61969e-07
-8.87415e-11
2.6222e-07
-1.94833e-10
2.62462e-07
-3.27481e-10
2.62696e-07
-4.93038e-10
2.62918e-07
-6.97768e-10
2.63126e-07
-9.46261e-10
2.63314e-07
-1.23788e-09
-1.56232e-09
2.63478e-07
2.50076e-07
-1.64705e-14
2.50288e-07
-4.85535e-14
2.50587e-07
-7.99597e-14
2.50934e-07
-1.16397e-13
2.51315e-07
-1.6183e-13
2.51719e-07
-2.21168e-13
2.52138e-07
-2.99994e-13
2.52566e-07
-4.057e-13
2.52999e-07
-5.46778e-13
2.53436e-07
-7.34775e-13
2.53876e-07
-9.8394e-13
2.54317e-07
-1.31339e-12
2.54758e-07
-1.74701e-12
2.55199e-07
-2.31723e-12
2.55637e-07
-3.06629e-12
2.56071e-07
-4.04857e-12
2.56502e-07
-5.33386e-12
2.56926e-07
-7.01271e-12
2.57343e-07
-9.19228e-12
2.57752e-07
-1.20141e-11
2.58151e-07
-1.5667e-11
2.58538e-07
-2.03931e-11
2.58913e-07
-2.64999e-11
2.59274e-07
-3.43855e-11
2.59621e-07
-4.45664e-11
2.59954e-07
-5.77085e-11
2.60273e-07
-7.467e-11
2.60579e-07
-9.65592e-11
2.60873e-07
-1.24793e-10
2.61157e-07
-1.61172e-10
2.6143e-07
-2.07982e-10
2.61695e-07
-2.68112e-10
2.61951e-07
-3.45151e-10
2.62199e-07
-4.43419e-10
2.6244e-07
-5.67941e-10
2.62671e-07
-7.24259e-10
2.62891e-07
-9.17625e-10
2.63096e-07
-1.15144e-09
2.63283e-07
-1.42419e-09
-1.72579e-09
2.63446e-07
2.50076e-07
-7.58585e-11
2.50288e-07
-2.12568e-10
2.50587e-07
-2.98931e-10
2.50934e-07
-3.47006e-10
2.51315e-07
-3.80738e-10
2.51719e-07
-4.04739e-10
2.52138e-07
-4.19186e-10
2.52566e-07
-4.27997e-10
2.52999e-07
-4.34036e-10
2.53436e-07
-4.38079e-10
2.53876e-07
-4.4066e-10
2.54317e-07
-4.42279e-10
2.54758e-07
-4.42968e-10
2.55199e-07
-4.42597e-10
2.55637e-07
-4.41167e-10
2.56071e-07
-4.38745e-10
2.56501e-07
-4.35394e-10
2.56926e-07
-4.31242e-10
2.57343e-07
-4.26403e-10
2.57752e-07
-4.20828e-10
2.58151e-07
-4.14525e-10
2.58538e-07
-4.07782e-10
2.58913e-07
-4.0115e-10
2.59274e-07
-3.95386e-10
2.5962e-07
-3.91432e-10
2.59953e-07
-3.9039e-10
2.60272e-07
-3.93529e-10
2.60578e-07
-4.02305e-10
2.60871e-07
-4.18385e-10
2.61154e-07
-4.43695e-10
2.61426e-07
-4.80516e-10
2.6169e-07
-5.31598e-10
2.61945e-07
-6.00259e-10
2.62192e-07
-6.90403e-10
2.6243e-07
-8.06473e-10
2.62659e-07
-9.5326e-10
2.62877e-07
-1.1351e-09
2.63079e-07
-1.35438e-09
2.63264e-07
-1.60896e-09
-1.88907e-09
2.63428e-07
2.50077e-07
-1.53095e-10
2.50292e-07
-4.27756e-10
2.50593e-07
-5.99674e-10
2.50941e-07
-6.95049e-10
2.51323e-07
-7.62212e-10
2.51728e-07
-8.09893e-10
2.52147e-07
-8.38479e-10
2.52575e-07
-8.55879e-10
2.53009e-07
-8.6775e-10
2.53446e-07
-8.75599e-10
2.53886e-07
-8.80489e-10
2.54327e-07
-8.83399e-10
2.54769e-07
-8.84345e-10
2.55209e-07
-8.83034e-10
2.55647e-07
-8.79426e-10
2.56082e-07
-8.73597e-10
2.56512e-07
-8.65602e-10
2.56937e-07
-8.55617e-10
2.57354e-07
-8.43761e-10
2.57763e-07
-8.29785e-10
2.58162e-07
-8.13504e-10
2.58549e-07
-7.95257e-10
2.58924e-07
-7.75838e-10
2.59285e-07
-7.56363e-10
2.59632e-07
-7.382e-10
2.59964e-07
-7.22888e-10
2.60283e-07
-7.12107e-10
2.60588e-07
-7.0766e-10
2.60881e-07
-7.11455e-10
2.61163e-07
-7.25543e-10
2.61435e-07
-7.52191e-10
2.61697e-07
-7.94005e-10
2.61951e-07
-8.54033e-10
2.62196e-07
-9.35763e-10
2.62433e-07
-1.04308e-09
2.6266e-07
-1.18006e-09
2.62875e-07
-1.35026e-09
2.63076e-07
-1.55521e-09
2.63259e-07
-1.79226e-09
-2.05203e-09
2.63422e-07
2.5008e-07
-2.33215e-10
2.50301e-07
-6.48379e-10
2.50605e-07
-9.04208e-10
2.50956e-07
-1.0454e-09
2.51339e-07
-1.14549e-09
2.51745e-07
-1.21632e-09
2.52165e-07
-1.25859e-09
2.52594e-07
-1.28435e-09
2.53028e-07
-1.30193e-09
2.53466e-07
-1.31348e-09
2.53906e-07
-1.32064e-09
2.54348e-07
-1.32484e-09
2.54789e-07
-1.32606e-09
2.5523e-07
-1.32381e-09
2.55669e-07
-1.31803e-09
2.56104e-07
-1.30879e-09
2.56534e-07
-1.29614e-09
2.56959e-07
-1.28033e-09
2.57377e-07
-1.26147e-09
2.57786e-07
-1.23909e-09
2.58185e-07
-1.21281e-09
2.58573e-07
-1.183e-09
2.58948e-07
-1.15072e-09
2.59309e-07
-1.11744e-09
2.59656e-07
-1.08496e-09
2.59988e-07
-1.05527e-09
2.60306e-07
-1.03044e-09
2.60611e-07
-1.01263e-09
2.60904e-07
-1.004e-09
2.61185e-07
-1.0067e-09
2.61456e-07
-1.02299e-09
2.61717e-07
-1.05533e-09
2.6197e-07
-1.10649e-09
2.62213e-07
-1.17954e-09
2.62448e-07
-1.27784e-09
2.62673e-07
-1.40481e-09
2.62886e-07
-1.56327e-09
2.63085e-07
-1.75408e-09
2.63266e-07
-1.97418e-09
-2.21466e-09
2.63429e-07
2.50085e-07
-3.17913e-10
2.50314e-07
-8.77366e-10
2.50624e-07
-1.21443e-09
2.50978e-07
-1.39922e-09
2.51364e-07
-1.53148e-09
2.51772e-07
-1.62466e-09
2.52193e-07
-1.67993e-09
2.52623e-07
-1.71372e-09
2.53058e-07
-1.7368e-09
2.53496e-07
-1.75192e-09
2.53937e-07
-1.76128e-09
2.54379e-07
-1.76679e-09
2.54821e-07
-1.76829e-09
2.55262e-07
-1.76512e-09
2.55701e-07
-1.75716e-09
2.56137e-07
-1.74451e-09
2.56568e-07
-1.7272e-09
2.56993e-07
-1.70555e-09
2.57412e-07
-1.67971e-09
2.57821e-07
-1.64893e-09
2.58221e-07
-1.61261e-09
2.58609e-07
-1.57117e-09
2.58985e-07
-1.52592e-09
2.59346e-07
-1.47871e-09
2.59693e-07
-1.43177e-09
2.60025e-07
-1.38752e-09
2.60343e-07
-1.34848e-09
2.60647e-07
-1.31715e-09
2.60939e-07
-1.29591e-09
2.6122e-07
-1.28705e-09
2.61489e-07
-1.29279e-09
2.6175e-07
-1.31543e-09
2.62001e-07
-1.35748e-09
2.62243e-07
-1.42161e-09
2.62475e-07
-1.51063e-09
2.62698e-07
-1.62738e-09
2.62909e-07
-1.77405e-09
2.63105e-07
-1.95089e-09
2.63286e-07
-2.15459e-09
-2.37667e-09
2.63448e-07
2.50091e-07
-4.0922e-10
2.50332e-07
-1.1179e-09
2.5065e-07
-1.53222e-09
2.51008e-07
-1.75767e-09
2.51398e-07
-1.92111e-09
2.51809e-07
-2.03554e-09
2.52232e-07
-2.10292e-09
2.52662e-07
-2.14431e-09
2.53098e-07
-2.17264e-09
2.53537e-07
-2.19114e-09
2.53979e-07
-2.20262e-09
2.54421e-07
-2.20945e-09
2.54864e-07
-2.21125e-09
2.55306e-07
-2.20716e-09
2.55746e-07
-2.19704e-09
2.56182e-07
-2.18097e-09
2.56614e-07
-2.15897e-09
2.5704e-07
-2.13147e-09
2.57459e-07
-2.09868e-09
2.5787e-07
-2.0595e-09
2.5827e-07
-2.01308e-09
2.58659e-07
-1.9599e-09
2.59034e-07
-1.90153e-09
2.59396e-07
-1.8402e-09
2.59743e-07
-1.77861e-09
2.60075e-07
-1.71961e-09
2.60393e-07
-1.66615e-09
2.60696e-07
-1.62109e-09
2.60988e-07
-1.58704e-09
2.61267e-07
-1.56641e-09
2.61536e-07
-1.56139e-09
2.61794e-07
-1.57412e-09
2.62043e-07
-1.60684e-09
2.62284e-07
-1.6618e-09
2.62514e-07
-1.74131e-09
2.62735e-07
-1.84766e-09
2.62943e-07
-1.98248e-09
2.63138e-07
-2.14553e-09
2.63316e-07
-2.33331e-09
-2.5378e-09
2.63477e-07
2.501e-07
-5.09672e-10
2.50356e-07
-1.37352e-09
2.50683e-07
-1.85946e-09
2.51048e-07
-2.12195e-09
2.51442e-07
-2.31532e-09
2.51856e-07
-2.44957e-09
2.52281e-07
-2.52799e-09
2.52713e-07
-2.57645e-09
2.5315e-07
-2.60972e-09
2.5359e-07
-2.63135e-09
2.54033e-07
-2.64486e-09
2.54476e-07
-2.65303e-09
2.5492e-07
-2.65516e-09
2.55363e-07
-2.65016e-09
2.55804e-07
-2.63786e-09
2.56241e-07
-2.61835e-09
2.56674e-07
-2.59161e-09
2.57101e-07
-2.55825e-09
2.5752e-07
-2.51851e-09
2.57932e-07
-2.47091e-09
2.58333e-07
-2.4143e-09
2.58722e-07
-2.34923e-09
2.59098e-07
-2.27753e-09
2.5946e-07
-2.20185e-09
2.59807e-07
-2.12534e-09
2.60138e-07
-2.05132e-09
2.60455e-07
-1.98318e-09
2.60758e-07
-1.92412e-09
2.61048e-07
-1.87703e-09
2.61326e-07
-1.8444e-09
2.61593e-07
-1.82838e-09
2.6185e-07
-1.83096e-09
2.62098e-07
-1.8541e-09
2.62335e-07
-1.89966e-09
2.62563e-07
-1.96943e-09
2.62781e-07
-2.0652e-09
2.62987e-07
-2.18812e-09
2.63179e-07
-2.33754e-09
2.63355e-07
-2.50983e-09
-2.6974e-09
2.63515e-07
2.50113e-07
-6.22526e-10
2.50387e-07
-1.64815e-09
2.50726e-07
-2.19801e-09
2.51097e-07
-2.49327e-09
2.51497e-07
-2.71507e-09
2.51915e-07
-2.86736e-09
2.52342e-07
-2.95556e-09
2.52776e-07
-3.01052e-09
2.53215e-07
-3.04834e-09
2.53657e-07
-3.07281e-09
2.541e-07
-3.08824e-09
2.54545e-07
-3.09777e-09
2.5499e-07
-3.10025e-09
2.55434e-07
-3.09431e-09
2.55876e-07
-3.07981e-09
2.56314e-07
-3.0568e-09
2.56748e-07
-3.02523e-09
2.57176e-07
-2.98593e-09
2.57596e-07
-2.93925e-09
2.58009e-07
-2.88317e-09
2.5841e-07
-2.81621e-09
2.588e-07
-2.73904e-09
2.59176e-07
-2.65373e-09
2.59538e-07
-2.56337e-09
2.59884e-07
-2.47161e-09
2.60215e-07
-2.38224e-09
2.60531e-07
-2.29908e-09
2.60833e-07
-2.22572e-09
2.61121e-07
-2.16529e-09
2.61397e-07
-2.1204e-09
2.61662e-07
-2.09313e-09
2.61916e-07
-2.08531e-09
2.6216e-07
-2.09865e-09
2.62395e-07
-2.13457e-09
2.6262e-07
-2.19438e-09
2.62834e-07
-2.2794e-09
2.63037e-07
-2.39038e-09
2.63225e-07
-2.52629e-09
2.63399e-07
-2.68345e-09
-2.85472e-09
2.63556e-07
2.5013e-07
-7.52065e-10
2.50428e-07
-1.94624e-09
2.50779e-07
-2.54965e-09
2.51159e-07
-2.87292e-09
2.51565e-07
-3.12131e-09
2.51987e-07
-3.28951e-09
2.52418e-07
-3.38611e-09
2.52854e-07
-3.44689e-09
2.53295e-07
-3.48883e-09
2.53738e-07
-3.51579e-09
2.54182e-07
-3.53298e-09
2.54629e-07
-3.5439e-09
2.55075e-07
-3.54669e-09
2.5552e-07
-3.53975e-09
2.55964e-07
-3.52296e-09
2.56403e-07
-3.49632e-09
2.56838e-07
-3.45973e-09
2.57266e-07
-3.41436e-09
2.57687e-07
-3.36068e-09
2.581e-07
-3.29599e-09
2.58503e-07
-3.21848e-09
2.58892e-07
-3.12889e-09
2.59268e-07
-3.0296e-09
2.59629e-07
-2.92416e-09
2.59974e-07
-2.81673e-09
2.60303e-07
-2.71158e-09
2.60617e-07
-2.613e-09
2.60917e-07
-2.52498e-09
2.61202e-07
-2.45087e-09
2.61475e-07
-2.39341e-09
2.61737e-07
-2.35461e-09
2.61987e-07
-2.33613e-09
2.62228e-07
-2.33942e-09
2.62459e-07
-2.36548e-09
2.6268e-07
-2.4151e-09
2.6289e-07
-2.4892e-09
2.63087e-07
-2.58817e-09
2.63272e-07
-2.7107e-09
2.63441e-07
-2.85307e-09
-3.00851e-09
2.63595e-07
2.50152e-07
-9.04012e-10
2.50478e-07
-2.27279e-09
2.50845e-07
-2.91616e-09
2.51234e-07
-3.26227e-09
2.51648e-07
-3.53503e-09
2.52075e-07
-3.71663e-09
2.52509e-07
-3.82014e-09
2.52948e-07
-3.88599e-09
2.53391e-07
-3.93151e-09
2.53836e-07
-3.9605e-09
2.54282e-07
-3.97925e-09
2.54729e-07
-3.99149e-09
2.55177e-07
-3.99447e-09
2.55624e-07
-3.98638e-09
2.56068e-07
-3.96709e-09
2.56508e-07
-3.93659e-09
2.56943e-07
-3.89466e-09
2.57372e-07
-3.843e-09
2.57793e-07
-3.78219e-09
2.58206e-07
-3.70869e-09
2.58608e-07
-3.62031e-09
2.58997e-07
-3.51791e-09
2.59371e-07
-3.40417e-09
2.5973e-07
-3.28314e-09
2.60073e-07
-3.15954e-09
2.604e-07
-3.03811e-09
2.6071e-07
-2.92365e-09
2.61006e-07
-2.82054e-09
2.61287e-07
-2.73239e-09
2.61556e-07
-2.66203e-09
2.61813e-07
-2.61141e-09
2.62059e-07
-2.58201e-09
2.62294e-07
-2.57502e-09
2.6252e-07
-2.59099e-09
2.62735e-07
-2.63021e-09
2.62939e-07
-2.69323e-09
2.63131e-07
-2.78015e-09
2.63309e-07
-2.88938e-09
2.63474e-07
-3.01721e-09
-3.15728e-09
2.63622e-07
2.50182e-07
-1.08611e-09
2.50543e-07
-2.63332e-09
2.50926e-07
-3.29923e-09
2.51326e-07
-3.66286e-09
2.51748e-07
-3.95718e-09
2.52181e-07
-4.14928e-09
2.52619e-07
-4.25811e-09
2.53061e-07
-4.32818e-09
2.53506e-07
-4.37657e-09
2.53953e-07
-4.40695e-09
2.544e-07
-4.42689e-09
2.54849e-07
-4.44027e-09
2.55298e-07
-4.44316e-09
2.55745e-07
-4.43358e-09
2.56189e-07
-4.41146e-09
2.56629e-07
-4.37669e-09
2.57064e-07
-4.32895e-09
2.57491e-07
-4.27064e-09
2.57912e-07
-4.20252e-09
2.58323e-07
-4.11991e-09
2.58723e-07
-4.02026e-09
2.5911e-07
-3.90456e-09
2.59481e-07
-3.77581e-09
2.59837e-07
-3.63861e-09
2.60175e-07
-3.49825e-09
2.60497e-07
-3.35998e-09
2.60803e-07
-3.22911e-09
2.61093e-07
-3.11045e-09
2.61368e-07
-3.00785e-09
2.6163e-07
-2.92427e-09
2.6188e-07
-2.86152e-09
2.62119e-07
-2.82093e-09
2.62348e-07
-2.80343e-09
2.62566e-07
-2.8091e-09
2.62773e-07
-2.8377e-09
2.62969e-07
-2.88948e-09
2.63154e-07
-2.96426e-09
2.63324e-07
-3.06025e-09
2.63481e-07
-3.17374e-09
-3.29876e-09
2.63623e-07
2.50223e-07
-1.30894e-09
2.50623e-07