/*--------------------------------*- C++ -*----------------------------------*\
| =========                 |                                                 |
| \\      /  F ield         | OpenFOAM: The Open Source CFD Toolbox           |
|  \\    /   O peration     | Version:  2306                                  |
|   \\  /    A nd           | Website:  www.openfoam.com                      |
|    \\/     M anipulation  |                                                 |
\*---------------------------------------------------------------------------*/
FoamFile
{
    version     2.0;
    format      ascii;
    arch        "LSB;label=32;scalar=64";
    class       volVectorField;
    location    "500";
    object      U;
}
// * * * * * * * * * * * * * * * * * * * * * * * * * * * * * * * * * * * * * //

dimensions      [0 1 -1 0 0 0 0];

internalField   nonuniform List<vector> 
25600
(
(0.977307 0.00314284 0)
(0.95591 0.0058844 0)
(0.929884 0.00633988 0)
(0.903113 0.00648136 0)
(0.87732 0.00647211 0)
(0.852321 0.00634461 0)
(0.827858 0.00614667 0)
(0.803953 0.00590564 0)
(0.780682 0.00563751 0)
(0.758073 0.00535104 0)
(0.736139 0.00505523 0)
(0.71493 0.00471217 0)
(0.694284 0.00433223 0)
(0.674201 0.00398036 0)
(0.654784 0.00365481 0)
(0.636167 0.00332262 0)
(0.618528 0.00300859 0)
(0.601755 0.00274307 0)
(0.585758 0.00251596 0)
(0.570612 0.00229327 0)
(0.55648 0.00204654 0)
(0.5436 0.00177664 0)
(0.532028 0.00150307 0)
(0.521768 0.00124118 0)
(0.512805 0.000971515 0)
(0.505139 0.000702653 0)
(0.498723 0.000467506 0)
(0.493442 0.000275746 0)
(0.489151 0.000123849 0)
(0.485705 1.09542e-05 0)
(0.48297 -7.85559e-05 0)
(0.480839 -0.000150089 0)
(0.479226 -0.0002083 0)
(0.478075 -0.000269169 0)
(0.477374 -0.000333107 0)
(0.477124 -0.000395046 0)
(0.477287 -0.0004426 0)
(0.477805 -0.000577799 0)
(0.479664 -0.000571412 0)
(0.479793 -0.00147162 0)
(1.00123 0.00759615 0)
(1.00608 0.00749011 0)
(1.00509 0.00703354 0)
(1.00239 0.00687505 0)
(0.999183 0.00680926 0)
(0.995392 0.00672724 0)
(0.990841 0.00663606 0)
(0.985596 0.00655367 0)
(0.979772 0.00648198 0)
(0.973435 0.00641122 0)
(0.966637 0.00632556 0)
(0.959418 0.00625551 0)
(0.951953 0.00622389 0)
(0.944297 0.00618773 0)
(0.936447 0.00611139 0)
(0.928389 0.00598913 0)
(0.920085 0.00582724 0)
(0.911648 0.00563865 0)
(0.9032 0.00543329 0)
(0.894779 0.00519813 0)
(0.88638 0.00490137 0)
(0.877971 0.00454395 0)
(0.869663 0.00415679 0)
(0.861518 0.0037582 0)
(0.853604 0.00336006 0)
(0.845923 0.00296747 0)
(0.83852 0.00258811 0)
(0.831447 0.00223851 0)
(0.824713 0.00192932 0)
(0.818324 0.00165565 0)
(0.81228 0.00141427 0)
(0.806582 0.00120018 0)
(0.801233 0.00100679 0)
(0.796236 0.000828649 0)
(0.791583 0.000657853 0)
(0.787287 0.00048788 0)
(0.783421 0.000313463 0)
(0.78013 5.20153e-05 0)
(0.777458 -0.000235066 0)
(0.775892 -0.00145327 0)
(1.00177 0.00527778 0)
(1.00652 0.00691332 0)
(1.00896 0.00684821 0)
(1.01011 0.00696733 0)
(1.01088 0.00718594 0)
(1.01155 0.00734683 0)
(1.01202 0.00745554 0)
(1.01228 0.00751272 0)
(1.01237 0.00754643 0)
(1.01228 0.00756306 0)
(1.01202 0.00754329 0)
(1.01156 0.00749615 0)
(1.0109 0.00743287 0)
(1.01003 0.00734084 0)
(1.00895 0.00721561 0)
(1.00763 0.00706076 0)
(1.00605 0.00689021 0)
(1.00424 0.00671398 0)
(1.00223 0.00652613 0)
(1.00003 0.00631284 0)
(0.99761 0.00606198 0)
(0.994888 0.00577188 0)
(0.991865 0.00545068 0)
(0.988559 0.00510992 0)
(0.984996 0.00475841 0)
(0.981184 0.00441355 0)
(0.977143 0.00406344 0)
(0.972859 0.00371146 0)
(0.968432 0.00338236 0)
(0.963914 0.0030848 0)
(0.959347 0.00281554 0)
(0.954766 0.00256947 0)
(0.950208 0.00233927 0)
(0.945708 0.00211545 0)
(0.9413 0.00188775 0)
(0.937029 0.00164487 0)
(0.932951 0.00136906 0)
(0.929159 0.000983963 0)
(0.925687 0.000460805 0)
(0.922746 -0.000855177 0)
(1.0014 0.00444401 0)
(1.00545 0.00602362 0)
(1.00826 0.00624834 0)
(1.00987 0.00654806 0)
(1.01129 0.0068299 0)
(1.01275 0.00697756 0)
(1.01412 0.00704294 0)
(1.01539 0.00707864 0)
(1.01657 0.00709535 0)
(1.0178 0.00708707 0)
(1.01901 0.00707826 0)
(1.01998 0.00707398 0)
(1.02091 0.00705308 0)
(1.02179 0.00701358 0)
(1.0226 0.00695359 0)
(1.02332 0.00687363 0)
(1.02396 0.00678262 0)
(1.0245 0.00667192 0)
(1.02494 0.00653119 0)
(1.02528 0.00636587 0)
(1.02551 0.00617035 0)
(1.0256 0.00594093 0)
(1.02554 0.00568171 0)
(1.02531 0.00540229 0)
(1.0249 0.00511072 0)
(1.02431 0.00481391 0)
(1.02356 0.00452658 0)
(1.0226 0.00426046 0)
(1.02146 0.00401467 0)
(1.02014 0.00378633 0)
(1.01867 0.00357382 0)
(1.01705 0.00336591 0)
(1.01531 0.00315916 0)
(1.01345 0.00294982 0)
(1.01151 0.0027305 0)
(1.00951 0.00248887 0)
(1.00749 0.00219648 0)
(1.00548 0.00177617 0)
(1.00354 0.0011662 0)
(1.00159 -3.39069e-05 0)
(1.00108 0.00328472 0)
(1.00439 0.00550804 0)
(1.00713 0.00580979 0)
(1.00893 0.00612124 0)
(1.01056 0.00641777 0)
(1.01225 0.00658645 0)
(1.0139 0.00667643 0)
(1.01547 0.00673376 0)
(1.01699 0.00676935 0)
(1.01849 0.00678262 0)
(1.01997 0.00679222 0)
(1.02142 0.0067989 0)
(1.02284 0.00678624 0)
(1.02423 0.00675525 0)
(1.02558 0.00670435 0)
(1.02688 0.00663215 0)
(1.02814 0.006536 0)
(1.02941 0.00642635 0)
(1.03053 0.00630669 0)
(1.0316 0.00616186 0)
(1.03261 0.0059859 0)
(1.03355 0.00577807 0)
(1.0344 0.0055437 0)
(1.03515 0.00529223 0)
(1.03579 0.00503176 0)
(1.03632 0.00477138 0)
(1.03676 0.00451934 0)
(1.03709 0.00427936 0)
(1.03733 0.00405274 0)
(1.03749 0.00384205 0)
(1.03756 0.0036466 0)
(1.03755 0.00346396 0)
(1.03748 0.0032874 0)
(1.03733 0.00310559 0)
(1.03713 0.00290659 0)
(1.03688 0.00267517 0)
(1.03661 0.00238557 0)
(1.03632 0.00197153 0)
(1.03601 0.00136319 0)
(1.03554 0.00030883 0)
(1.00079 0.00267889 0)
(1.00344 0.00479623 0)
(1.00602 0.00528705 0)
(1.00789 0.00564701 0)
(1.0096 0.00596833 0)
(1.0114 0.00615755 0)
(1.01316 0.00626197 0)
(1.01486 0.00632905 0)
(1.01653 0.00637066 0)
(1.01818 0.0063888 0)
(1.01981 0.00640295 0)
(1.02143 0.00641375 0)
(1.02304 0.00640634 0)
(1.02463 0.00638079 0)
(1.02619 0.00633635 0)
(1.02772 0.00627249 0)
(1.02921 0.00618793 0)
(1.03067 0.00609061 0)
(1.03208 0.00598288 0)
(1.03345 0.00585007 0)
(1.03477 0.00568815 0)
(1.03602 0.00549805 0)
(1.0372 0.00528452 0)
(1.0383 0.00505542 0)
(1.03931 0.00481786 0)
(1.04023 0.00457917 0)
(1.04108 0.00434592 0)
(1.04185 0.00412313 0)
(1.04255 0.00391422 0)
(1.04319 0.00372113 0)
(1.04378 0.0035423 0)
(1.04433 0.00337249 0)
(1.04485 0.00320497 0)
(1.04533 0.00303068 0)
(1.0458 0.00283846 0)
(1.04625 0.00261221 0)
(1.04671 0.0023246 0)
(1.04716 0.00191382 0)
(1.04759 0.00131892 0)
(1.04785 0.000373876 0)
(1.00059 0.00215584 0)
(1.00272 0.00425579 0)
(1.00509 0.00477779 0)
(1.00694 0.00516619 0)
(1.00867 0.00550504 0)
(1.01048 0.00570752 0)
(1.0123 0.00581947 0)
(1.01407 0.00589199 0)
(1.01581 0.00593911 0)
(1.01755 0.00596334 0)
(1.01927 0.0059804 0)
(1.02097 0.00599297 0)
(1.02268 0.00598952 0)
(1.02437 0.00596905 0)
(1.02603 0.00593112 0)
(1.02768 0.00587523 0)
(1.02929 0.00579971 0)
(1.03086 0.00571258 0)
(1.03241 0.00561467 0)
(1.03391 0.00549342 0)
(1.03537 0.00534554 0)
(1.03677 0.00517212 0)
(1.03811 0.00497718 0)
(1.03936 0.00476748 0)
(1.04055 0.00454953 0)
(1.04165 0.00432983 0)
(1.04268 0.00411454 0)
(1.04364 0.00390856 0)
(1.04455 0.00371471 0)
(1.0454 0.00353398 0)
(1.0462 0.00336467 0)
(1.04698 0.003202 0)
(1.04773 0.0030399 0)
(1.04846 0.00286956 0)
(1.04918 0.00267921 0)
(1.0499 0.00245188 0)
(1.05063 0.00216096 0)
(1.05135 0.00175279 0)
(1.05204 0.00117564 0)
(1.05257 0.000320338 0)
(1.00045 0.00175459 0)
(1.00218 0.00369709 0)
(1.00435 0.00433937 0)
(1.00615 0.00472594 0)
(1.00786 0.00505382 0)
(1.00965 0.0052564 0)
(1.01147 0.00537029 0)
(1.01326 0.00544503 0)
(1.01504 0.00549532 0)
(1.01682 0.00552395 0)
(1.01858 0.00554336 0)
(1.02035 0.00555704 0)
(1.0221 0.00555642 0)
(1.02385 0.00553985 0)
(1.02558 0.00550711 0)
(1.02729 0.00545781 0)
(1.02897 0.00539076 0)
(1.03061 0.00531149 0)
(1.03223 0.00522116 0)
(1.03381 0.00511022 0)
(1.03535 0.00497528 0)
(1.03683 0.00481722 0)
(1.03825 0.00463949 0)
(1.0396 0.00444796 0)
(1.04088 0.00424854 0)
(1.04209 0.00404708 0)
(1.04322 0.00384906 0)
(1.04429 0.00365875 0)
(1.04531 0.00347849 0)
(1.04627 0.00330896 0)
(1.04719 0.00314853 0)
(1.04809 0.00299278 0)
(1.04896 0.00283565 0)
(1.04981 0.00266835 0)
(1.05066 0.00247909 0)
(1.0515 0.00225107 0)
(1.05235 0.0019592 0)
(1.05318 0.00155727 0)
(1.05397 0.00100192 0)
(1.0546 0.000222914 0)
(1.00035 0.00144022 0)
(1.00177 0.0032395 0)
(1.00375 0.00390567 0)
(1.0055 0.00428655 0)
(1.00717 0.00460578 0)
(1.00893 0.00480806 0)
(1.01074 0.00492205 0)
(1.01253 0.00499638 0)
(1.01432 0.00504716 0)
(1.01611 0.00507769 0)
(1.01789 0.00509802 0)
(1.01968 0.00511196 0)
(1.02147 0.00511315 0)
(1.02324 0.00509962 0)
(1.02501 0.00507122 0)
(1.02675 0.00502768 0)
(1.02848 0.00496821 0)
(1.03017 0.00489662 0)
(1.03183 0.00481393 0)
(1.03345 0.00471285 0)
(1.03504 0.00459008 0)
(1.03657 0.00444642 0)
(1.03805 0.00428492 0)
(1.03945 0.00411063 0)
(1.04079 0.00392885 0)
(1.04206 0.00374476 0)
(1.04326 0.00356317 0)
(1.0444 0.00338778 0)
(1.04548 0.00322061 0)
(1.04652 0.00306206 0)
(1.04751 0.00291041 0)
(1.04848 0.00276143 0)
(1.04942 0.00260905 0)
(1.05035 0.00244473 0)
(1.05127 0.00225694 0)
(1.05218 0.00202937 0)
(1.05308 0.00173862 0)
(1.05397 0.00134515 0)
(1.0548 0.000813392 0)
(1.05549 9.97933e-05 0)
(1.00028 0.00119212 0)
(1.00147 0.00282019 0)
(1.00327 0.00349274 0)
(1.00496 0.00386552 0)
(1.00661 0.0041698 0)
(1.00834 0.0043665 0)
(1.01011 0.00447766 0)
(1.01189 0.00454946 0)
(1.01368 0.00459889 0)
(1.01547 0.00462953 0)
(1.01726 0.00464964 0)
(1.01906 0.00466306 0)
(1.02085 0.00466516 0)
(1.02264 0.0046539 0)
(1.02442 0.00462911 0)
(1.02619 0.00459063 0)
(1.02793 0.00453787 0)
(1.02965 0.00447351 0)
(1.03133 0.0043983 0)
(1.03299 0.00430666 0)
(1.0346 0.00419555 0)
(1.03616 0.00406565 0)
(1.03767 0.00391965 0)
(1.03911 0.00376188 0)
(1.04049 0.00359703 0)
(1.0418 0.00342964 0)
(1.04304 0.0032639 0)
(1.04423 0.00310301 0)
(1.04536 0.00294864 0)
(1.04644 0.00280091 0)
(1.04749 0.00265801 0)
(1.0485 0.00251582 0)
(1.04949 0.0023684 0)
(1.05046 0.00220746 0)
(1.05142 0.00202184 0)
(1.05237 0.00179594 0)
(1.05331 0.00150821 0)
(1.05423 0.00112511 0)
(1.05508 0.000617936 0)
(1.05579 -3.81469e-05 0)
(1.00023 0.000991254 0)
(1.00124 0.00244199 0)
(1.00289 0.00310104 0)
(1.00453 0.00345917 0)
(1.00614 0.00374345 0)
(1.00784 0.00393094 0)
(1.00959 0.00403753 0)
(1.01136 0.0041056 0)
(1.01313 0.00415255 0)
(1.01492 0.00418215 0)
(1.01671 0.00420126 0)
(1.0185 0.00421363 0)
(1.0203 0.00421597 0)
(1.02209 0.00420635 0)
(1.02388 0.00418456 0)
(1.02565 0.00415049 0)
(1.0274 0.00410372 0)
(1.02913 0.00404608 0)
(1.03082 0.00397813 0)
(1.03249 0.00389554 0)
(1.03412 0.00379563 0)
(1.0357 0.00367894 0)
(1.03723 0.0035478 0)
(1.03869 0.00340592 0)
(1.04009 0.00325736 0)
(1.04143 0.0031061 0)
(1.0427 0.00295574 0)
(1.04392 0.00280898 0)
(1.04508 0.00266714 0)
(1.04619 0.00253011 0)
(1.04727 0.00239596 0)
(1.04832 0.00226071 0)
(1.04934 0.00211856 0)
(1.05034 0.0019615 0)
(1.05132 0.00177882 0)
(1.0523 0.00155577 0)
(1.05326 0.00127276 0)
(1.05418 0.000901567 0)
(1.05504 0.000419393 0)
(1.05577 -0.000186049 0)
(1.00019 0.00082529 0)
(1.00106 0.00210061 0)
(1.00258 0.00272712 0)
(1.00417 0.0030646 0)
(1.00575 0.00332576 0)
(1.00743 0.00350116 0)
(1.00916 0.0036016 0)
(1.01091 0.003665 0)
(1.01268 0.00370866 0)
(1.01445 0.00373646 0)
(1.01623 0.00375412 0)
(1.01802 0.00376518 0)
(1.01982 0.00376739 0)
(1.02161 0.00375898 0)
(1.02339 0.00373975 0)
(1.02516 0.00370962 0)
(1.02691 0.00366827 0)
(1.02864 0.00361696 0)
(1.03035 0.00355605 0)
(1.03202 0.0034822 0)
(1.03366 0.00339308 0)
(1.03524 0.0032891 0)
(1.03678 0.00317226 0)
(1.03826 0.00304567 0)
(1.03967 0.00291286 0)
(1.04102 0.00277723 0)
(1.04231 0.00264181 0)
(1.04355 0.00250884 0)
(1.04473 0.00237932 0)
(1.04587 0.00225287 0)
(1.04696 0.00212752 0)
(1.04803 0.00199937 0)
(1.04907 0.00186279 0)
(1.05009 0.00171011 0)
(1.05109 0.0015311 0)
(1.05208 0.00131202 0)
(1.05305 0.00103519 0)
(1.05398 0.000677015 0)
(1.05483 0.000219783 0)
(1.05557 -0.000340339 0)
(1.00016 0.000685301 0)
(1.00092 0.00179012 0)
(1.00233 0.00236881 0)
(1.00387 0.00268039 0)
(1.00544 0.00291604 0)
(1.00708 0.00307668 0)
(1.0088 0.00316942 0)
(1.01054 0.00322734 0)
(1.0123 0.00326711 0)
(1.01406 0.00329261 0)
(1.01584 0.00330855 0)
(1.01762 0.00331822 0)
(1.01941 0.0033201 0)
(1.02119 0.0033127 0)
(1.02297 0.00329577 0)
(1.02474 0.00326928 0)
(1.02649 0.00323298 0)
(1.02822 0.00318772 0)
(1.02992 0.00313371 0)
(1.0316 0.00306836 0)
(1.03323 0.00298971 0)
(1.03482 0.00289802 0)
(1.03636 0.00279498 0)
(1.03784 0.00268321 0)
(1.03926 0.00256567 0)
(1.04062 0.00244521 0)
(1.04193 0.00232437 0)
(1.04317 0.0022049 0)
(1.04437 0.00208749 0)
(1.04552 0.00197155 0)
(1.04663 0.00185503 0)
(1.0477 0.00173414 0)
(1.04876 0.00160345 0)
(1.04979 0.00145562 0)
(1.0508 0.00128098 0)
(1.05179 0.00106684 0)
(1.05276 0.000797382 0)
(1.05368 0.000453038 0)
(1.05454 2.03615e-05 0)
(1.05527 -0.000498887 0)
(1.00014 0.00056465 0)
(1.00082 0.00150525 0)
(1.00214 0.00202444 0)
(1.00364 0.00230521 0)
(1.00517 0.00251331 0)
(1.0068 0.00265688 0)
(1.0085 0.00274046 0)
(1.01023 0.0027922 0)
(1.01198 0.00282761 0)
(1.01374 0.0028504 0)
(1.01551 0.00286448 0)
(1.01729 0.00287274 0)
(1.01907 0.00287426 0)
(1.02085 0.00286776 0)
(1.02262 0.00285302 0)
(1.02439 0.00283 0)
(1.02613 0.00279853 0)
(1.02786 0.00275916 0)
(1.02956 0.00271198 0)
(1.03123 0.002655 0)
(1.03286 0.00258657 0)
(1.03445 0.00250685 0)
(1.03599 0.00241725 0)
(1.03747 0.00231989 0)
(1.0389 0.00221722 0)
(1.04026 0.00211158 0)
(1.04157 0.00200499 0)
(1.04282 0.00189879 0)
(1.04402 0.00179334 0)
(1.04518 0.00168785 0)
(1.0463 0.00158022 0)
(1.04738 0.00146676 0)
(1.04844 0.00134226 0)
(1.04947 0.00119972 0)
(1.05048 0.00103011 0)
(1.05148 0.000821751 0)
(1.05244 0.000560657 0)
(1.05336 0.000230682 0)
(1.0542 -0.000178051 0)
(1.05494 -0.000660107 0)
(1.00013 0.000458395 0)
(1.00074 0.00124134 0)
(1.00198 0.00169224 0)
(1.00344 0.00193772 0)
(1.00496 0.00211658 0)
(1.00657 0.00224114 0)
(1.00826 0.00231424 0)
(1.00998 0.00235917 0)
(1.01172 0.00238981 0)
(1.01348 0.00240959 0)
(1.01524 0.00242166 0)
(1.01702 0.00242855 0)
(1.01879 0.00242971 0)
(1.02057 0.0024241 0)
(1.02234 0.00241149 0)
(1.0241 0.00239188 0)
(1.02584 0.00236512 0)
(1.02756 0.00233155 0)
(1.02926 0.0022912 0)
(1.03092 0.00224252 0)
(1.03255 0.00218416 0)
(1.03414 0.00211621 0)
(1.03567 0.00203976 0)
(1.03716 0.00195652 0)
(1.03858 0.00186842 0)
(1.03995 0.00177732 0)
(1.04125 0.00168474 0)
(1.04251 0.00159162 0)
(1.04371 0.00149803 0)
(1.04487 0.00140298 0)
(1.04599 0.00130432 0)
(1.04708 0.00119848 0)
(1.04814 0.00108046 0)
(1.04917 0.000943656 0)
(1.05018 0.000779649 0)
(1.05117 0.000577829 0)
(1.05213 0.000325886 0)
(1.05304 1.06218e-05 0)
(1.05387 -0.000374908 0)
(1.0546 -0.000822921 0)
(1.00012 0.000362808 0)
(1.00068 0.000994285 0)
(1.00186 0.00137039 0)
(1.00329 0.00157668 0)
(1.00479 0.0017249 0)
(1.00639 0.00182885 0)
(1.00807 0.00189032 0)
(1.00978 0.00192787 0)
(1.01152 0.00195339 0)
(1.01327 0.0019699 0)
(1.01503 0.00197988 0)
(1.0168 0.00198542 0)
(1.01857 0.00198624 0)
(1.02034 0.00198152 0)
(1.02211 0.00197105 0)
(1.02386 0.00195481 0)
(1.0256 0.00193271 0)
(1.02732 0.00190492 0)
(1.02901 0.00187142 0)
(1.03067 0.00183103 0)
(1.0323 0.00178266 0)
(1.03388 0.00172632 0)
(1.03542 0.00166283 0)
(1.03689 0.00159349 0)
(1.03832 0.00151975 0)
(1.03968 0.00144299 0)
(1.04099 0.00136426 0)
(1.04225 0.00128412 0)
(1.04345 0.00120233 0)
(1.04461 0.00111775 0)
(1.04573 0.00102817 0)
(1.04682 0.00093014 0)
(1.04788 0.000818899 0)
(1.04891 0.000688251 0)
(1.04991 0.000530402 0)
(1.05089 0.00033577 0)
(1.05184 9.36131e-05 0)
(1.05274 -0.000206755 0)
(1.05357 -0.000569889 0)
(1.05429 -0.00098658 0)
(1.00011 0.000275027 0)
(1.00064 0.000760388 0)
(1.00177 0.00105703 0)
(1.00317 0.00122087 0)
(1.00466 0.00133733 0)
(1.00625 0.00141942 0)
(1.00792 0.00146826 0)
(1.00963 0.00149796 0)
(1.01136 0.00151808 0)
(1.0131 0.0015311 0)
(1.01486 0.0015389 0)
(1.01663 0.00154312 0)
(1.0184 0.00154363 0)
(1.02017 0.0015398 0)
(1.02193 0.00153147 0)
(1.02368 0.00151862 0)
(1.02542 0.00150114 0)
(1.02713 0.00147913 0)
(1.02882 0.00145253 0)
(1.03048 0.00142045 0)
(1.0321 0.00138202 0)
(1.03368 0.00133721 0)
(1.03521 0.00128656 0)
(1.03669 0.00123097 0)
(1.03811 0.00117144 0)
(1.03948 0.00110889 0)
(1.04078 0.00104392 0)
(1.04204 0.000976689 0)
(1.04324 0.000906701 0)
(1.0444 0.000832647 0)
(1.04552 0.000752286 0)
(1.04661 0.000662282 0)
(1.04766 0.000558128 0)
(1.04869 0.000434038 0)
(1.04969 0.000282854 0)
(1.05066 9.59815e-05 0)
(1.05159 -0.000135878 0)
(1.05248 -0.00042128 0)
(1.0533 -0.000762844 0)
(1.05402 -0.00115058 0)
(1.0001 0.000192792 0)
(1.00061 0.000536338 0)
(1.00171 0.000750281 0)
(1.00309 0.000869127 0)
(1.00457 0.000952932 0)
(1.00615 0.00101221 0)
(1.00781 0.00104764 0)
(1.00951 0.00106911 0)
(1.01124 0.0010836 0)
(1.01298 0.00109296 0)
(1.01474 0.00109852 0)
(1.01651 0.00110143 0)
(1.01827 0.00110165 0)
(1.02004 0.00109874 0)
(1.0218 0.00109257 0)
(1.02355 0.00108309 0)
(1.02528 0.00107024 0)
(1.027 0.00105402 0)
(1.02868 0.00103436 0)
(1.03034 0.00101061 0)
(1.03196 0.000982114 0)
(1.03354 0.000948768 0)
(1.03506 0.000910877 0)
(1.03654 0.000868954 0)
(1.03796 0.000823559 0)
(1.03932 0.000775135 0)
(1.04063 0.000723871 0)
(1.04188 0.00066955 0)
(1.04308 0.000611399 0)
(1.04424 0.000547962 0)
(1.04536 0.000476975 0)
(1.04644 0.000395225 0)
(1.04749 0.000298462 0)
(1.04851 0.00018132 0)
(1.0495 3.72676e-05 0)
(1.05047 -0.000141345 0)
(1.05139 -0.000362503 0)
(1.05227 -0.000632955 0)
(1.05307 -0.000953768 0)
(1.05379 -0.00131461 0)
(1.0001 0.000114256 0)
(1.00059 0.000319112 0)
(1.00167 0.000448247 0)
(1.00303 0.00052027 0)
(1.00451 0.00057079 0)
(1.00608 0.000606595 0)
(1.00773 0.000628049 0)
(1.00944 0.000641004 0)
(1.01116 0.000649705 0)
(1.01291 0.000655296 0)
(1.01466 0.000658547 0)
(1.01643 0.000660157 0)
(1.01819 0.000660109 0)
(1.01996 0.000658131 0)
(1.02172 0.000654121 0)
(1.02346 0.00064804 0)
(1.02519 0.000639809 0)
(1.02691 0.000629399 0)
(1.02859 0.00061671 0)
(1.03024 0.000601315 0)
(1.03186 0.000582752 0)
(1.03344 0.000560855 0)
(1.03497 0.000535683 0)
(1.03644 0.000507381 0)
(1.03786 0.000476072 0)
(1.03922 0.000441752 0)
(1.04052 0.000404186 0)
(1.04177 0.000362797 0)
(1.04298 0.000316548 0)
(1.04413 0.00026384 0)
(1.04525 0.000202398 0)
(1.04632 0.000129133 0)
(1.04737 4.00596e-05 0)
(1.04839 -6.9767e-05 0)
(1.04937 -0.000206259 0)
(1.05032 -0.000376177 0)
(1.05124 -0.000586315 0)
(1.0521 -0.000841893 0)
(1.0529 -0.00114275 0)
(1.05361 -0.0014785 0)
(1.0001 3.78442e-05 0)
(1.00058 0.000105898 0)
(1.00165 0.000149048 0)
(1.003 0.000173152 0)
(1.00448 0.000190005 0)
(1.00604 0.000201944 0)
(1.0077 0.00020908 0)
(1.0094 0.000213347 0)
(1.01113 0.000216163 0)
(1.01287 0.000217909 0)
(1.01462 0.000218829 0)
(1.01639 0.000219145 0)
(1.01815 0.000218838 0)
(1.01991 0.000217797 0)
(1.02167 0.00021596 0)
(1.02342 0.000213276 0)
(1.02515 0.000209674 0)
(1.02686 0.000205082 0)
(1.02854 0.000199395 0)
(1.0302 0.000192378 0)
(1.03182 0.000183752 0)
(1.03339 0.0001733 0)
(1.03492 0.000160836 0)
(1.03639 0.000146142 0)
(1.0378 0.000128913 0)
(1.03916 0.000108705 0)
(1.04047 8.4864e-05 0)
(1.04172 5.64592e-05 0)
(1.04292 2.21996e-05 0)
(1.04407 -1.96502e-05 0)
(1.04518 -7.1372e-05 0)
(1.04626 -0.000135922 0)
(1.0473 -0.000217018 0)
(1.04831 -0.000319184 0)
(1.04929 -0.000447727 0)
(1.05023 -0.000608574 0)
(1.05114 -0.000807448 0)
(1.05199 -0.00104828 0)
(1.05278 -0.00132993 0)
(1.05348 -0.00164218 0)
(1.0001 -3.78746e-05 0)
(1.00058 -0.00010599 0)
(1.00165 -0.000149202 0)
(1.003 -0.000173379 0)
(1.00448 -0.000190322 0)
(1.00604 -0.00020238 0)
(1.0077 -0.000209674 0)
(1.0094 -0.000214153 0)
(1.01112 -0.000217254 0)
(1.01287 -0.000219377 0)
(1.01462 -0.000220797 0)
(1.01639 -0.000221773 0)
(1.01815 -0.000222333 0)
(1.01991 -0.000222433 0)
(1.02167 -0.000222094 0)
(1.02342 -0.000221374 0)
(1.02515 -0.000220342 0)
(1.02686 -0.000219107 0)
(1.02854 -0.000217778 0)
(1.0302 -0.000216402 0)
(1.03181 -0.000215079 0)
(1.03339 -0.000214074 0)
(1.03491 -0.000213817 0)
(1.03639 -0.000214885 0)
(1.0378 -0.000218007 0)
(1.03916 -0.000224066 0)
(1.04046 -0.000234126 0)
(1.04171 -0.000249468 0)
(1.04291 -0.000271634 0)
(1.04406 -0.000302488 0)
(1.04517 -0.00034431 0)
(1.04624 -0.000399919 0)
(1.04728 -0.000472765 0)
(1.04828 -0.000566951 0)
(1.04925 -0.000687197 0)
(1.05019 -0.000838651 0)
(1.05108 -0.00102607 0)
(1.05193 -0.00125231 0)
(1.05271 -0.00151547 0)
(1.05341 -0.00180563 0)
(1.0001 -0.000114287 0)
(1.00059 -0.000319203 0)
(1.00167 -0.000448401 0)
(1.00303 -0.000520496 0)
(1.00451 -0.000571106 0)
(1.00608 -0.000607029 0)
(1.00773 -0.000628639 0)
(1.00944 -0.000641806 0)
(1.01116 -0.000650789 0)
(1.01291 -0.000656756 0)
(1.01466 -0.000660505 0)
(1.01643 -0.000662771 0)
(1.01819 -0.000663587 0)
(1.01996 -0.000662744 0)
(1.02171 -0.000660225 0)
(1.02346 -0.000656099 0)
(1.02519 -0.000650427 0)
(1.0269 -0.00064336 0)
(1.02859 -0.000635011 0)
(1.03024 -0.000625234 0)
(1.03186 -0.000613944 0)
(1.03343 -0.000601456 0)
(1.03496 -0.000588441 0)
(1.03643 -0.000575837 0)
(1.03785 -0.000564794 0)
(1.03921 -0.000556635 0)
(1.04051 -0.00055283 0)
(1.04176 -0.000555012 0)
(1.04295 -0.000564963 0)
(1.0441 -0.000584674 0)
(1.04521 -0.000616416 0)
(1.04627 -0.000662866 0)
(1.0473 -0.000727203 0)
(1.0483 -0.000813115 0)
(1.04927 -0.000924751 0)
(1.0502 -0.00106653 0)
(1.05108 -0.00124237 0)
(1.05192 -0.00145419 0)
(1.05269 -0.00169954 0)
(1.05338 -0.00196884 0)
(1.0001 -0.000192822 0)
(1.00061 -0.000536428 0)
(1.00171 -0.000750433 0)
(1.00309 -0.00086935 0)
(1.00457 -0.000953244 0)
(1.00615 -0.00101264 0)
(1.00781 -0.00104822 0)
(1.00951 -0.0010699 0)
(1.01124 -0.00108467 0)
(1.01298 -0.00109441 0)
(1.01474 -0.00110045 0)
(1.01651 -0.00110401 0)
(1.01827 -0.00110509 0)
(1.02004 -0.00110331 0)
(1.0218 -0.00109861 0)
(1.02355 -0.00109108 0)
(1.02528 -0.00108076 0)
(1.02699 -0.00106786 0)
(1.02868 -0.0010525 0)
(1.03033 -0.00103432 0)
(1.03195 -0.00101304 0)
(1.03353 -0.000989023 0)
(1.03505 -0.000963189 0)
(1.03653 -0.000936835 0)
(1.03794 -0.000911541 0)
(1.0393 -0.000889062 0)
(1.0406 -0.000871283 0)
(1.04185 -0.00086018 0)
(1.04304 -0.00085778 0)
(1.04419 -0.000866191 0)
(1.04529 -0.000887671 0)
(1.04636 -0.000924749 0)
(1.04738 -0.000980332 0)
(1.04837 -0.0010577 0)
(1.04933 -0.00116044 0)
(1.05025 -0.00129231 0)
(1.05113 -0.00145647 0)
(1.05195 -0.00165406 0)
(1.05272 -0.0018822 0)
(1.05341 -0.00213174 0)
(1.00011 -0.000275057 0)
(1.00064 -0.000760477 0)
(1.00177 -0.00105718 0)
(1.00317 -0.00122109 0)
(1.00466 -0.00133764 0)
(1.00625 -0.00141984 0)
(1.00792 -0.00146883 0)
(1.00963 -0.00149874 0)
(1.01136 -0.00151913 0)
(1.0131 -0.00153252 0)
(1.01486 -0.00154081 0)
(1.01663 -0.00154567 0)
(1.0184 -0.00154702 0)
(1.02017 -0.0015443 0)
(1.02193 -0.00153743 0)
(1.02368 -0.00152649 0)
(1.02541 -0.00151151 0)
(1.02713 -0.00149278 0)
(1.02882 -0.00147043 0)
(1.03047 -0.00144384 0)
(1.0321 -0.00141255 0)
(1.03367 -0.00137694 0)
(1.0352 -0.0013382 0)
(1.03667 -0.00129799 0)
(1.03809 -0.00125832 0)
(1.03945 -0.00122138 0)
(1.04075 -0.00118949 0)
(1.04199 -0.00116495 0)
(1.04319 -0.00115004 0)
(1.04433 -0.00114698 0)
(1.04543 -0.00115801 0)
(1.04649 -0.0011855 0)
(1.04751 -0.0012321 0)
(1.0485 -0.00130066 0)
(1.04945 -0.00139425 0)
(1.05036 -0.00151601 0)
(1.05123 -0.0016684 0)
(1.05204 -0.00185196 0)
(1.0528 -0.00206346 0)
(1.05349 -0.00229421 0)
(1.00012 -0.000362837 0)
(1.00068 -0.000994372 0)
(1.00186 -0.00137054 0)
(1.00329 -0.00157689 0)
(1.00479 -0.0017252 0)
(1.00639 -0.00182926 0)
(1.00807 -0.00189088 0)
(1.00978 -0.00192864 0)
(1.01152 -0.00195442 0)
(1.01327 -0.00197129 0)
(1.01503 -0.00198175 0)
(1.0168 -0.00198792 0)
(1.01857 -0.00198956 0)
(1.02034 -0.00198593 0)
(1.02211 -0.00197689 0)
(1.02386 -0.00196253 0)
(1.0256 -0.00194288 0)
(1.02731 -0.00191831 0)
(1.02901 -0.00188899 0)
(1.03067 -0.00185401 0)
(1.03229 -0.00181265 0)
(1.03387 -0.00176537 0)
(1.0354 -0.0017136 0)
(1.03688 -0.00165937 0)
(1.03829 -0.00160515 0)
(1.03965 -0.00155359 0)
(1.04095 -0.00150739 0)
(1.04219 -0.00146923 0)
(1.04338 -0.00144163 0)
(1.04452 -0.00142691 0)
(1.04562 -0.00142729 0)
(1.04667 -0.00144498 0)
(1.04768 -0.00148236 0)
(1.04866 -0.00154187 0)
(1.04961 -0.00162608 0)
(1.05051 -0.00173752 0)
(1.05137 -0.0018781 0)
(1.05218 -0.00204779 0)
(1.05292 -0.00224316 0)
(1.05361 -0.00245596 0)
(1.00013 -0.000458423 0)
(1.00074 -0.00124143 0)
(1.00198 -0.00169238 0)
(1.00344 -0.00193793 0)
(1.00496 -0.00211687 0)
(1.00657 -0.00224153 0)
(1.00826 -0.00231479 0)
(1.00998 -0.00235991 0)
(1.01172 -0.00239081 0)
(1.01348 -0.00241094 0)
(1.01524 -0.00242348 0)
(1.01702 -0.00243098 0)
(1.01879 -0.00243294 0)
(1.02057 -0.00242839 0)
(1.02234 -0.00241719 0)
(1.02409 -0.00239941 0)
(1.02583 -0.00237505 0)
(1.02755 -0.00234464 0)
(1.02925 -0.00230837 0)
(1.03091 -0.00226499 0)
(1.03254 -0.00221349 0)
(1.03412 -0.00215441 0)
(1.03566 -0.00208942 0)
(1.03713 -0.00202098 0)
(1.03855 -0.001952 0)
(1.03991 -0.00188556 0)
(1.0412 -0.00182483 0)
(1.04244 -0.00177283 0)
(1.04363 -0.00173231 0)
(1.04476 -0.00170571 0)
(1.04585 -0.00169522 0)
(1.0469 -0.00170289 0)
(1.04791 -0.00173081 0)
(1.04888 -0.00178105 0)
(1.04981 -0.00185562 0)
(1.0507 -0.00195658 0)
(1.05155 -0.00208529 0)
(1.05234 -0.00224129 0)
(1.05308 -0.00242099 0)
(1.05376 -0.00261658 0)
(1.00014 -0.000564678 0)
(1.00082 -0.00150533 0)
(1.00214 -0.00202457 0)
(1.00364 -0.00230541 0)
(1.00517 -0.00251359 0)
(1.0068 -0.00265726 0)
(1.0085 -0.00274099 0)
(1.01023 -0.00279291 0)
(1.01198 -0.00282858 0)
(1.01374 -0.00285171 0)
(1.01551 -0.00286623 0)
(1.01729 -0.00287509 0)
(1.01907 -0.00287739 0)
(1.02085 -0.00287192 0)
(1.02262 -0.00285854 0)
(1.02438 -0.0028373 0)
(1.02613 -0.00280817 0)
(1.02785 -0.00277187 0)
(1.02955 -0.00272868 0)
(1.03122 -0.00267685 0)
(1.03285 -0.0026151 0)
(1.03443 -0.00254404 0)
(1.03597 -0.00246561 0)
(1.03744 -0.00238267 0)
(1.03886 -0.00229863 0)
(1.04021 -0.00221702 0)
(1.04151 -0.00214146 0)
(1.04274 -0.00207533 0)
(1.04392 -0.00202163 0)
(1.04505 -0.00198291 0)
(1.04613 -0.0019613 0)
(1.04717 -0.0019587 0)
(1.04816 -0.00197694 0)
(1.04912 -0.00201766 0)
(1.05004 -0.00208238 0)
(1.05092 -0.00217268 0)
(1.05175 -0.00228948 0)
(1.05254 -0.00243192 0)
(1.05326 -0.00259634 0)
(1.05393 -0.00277536 0)
(1.00016 -0.000685327 0)
(1.00092 -0.0017902 0)
(1.00233 -0.00236894 0)
(1.00387 -0.00268058 0)
(1.00544 -0.0029163 0)
(1.00708 -0.00307705 0)
(1.0088 -0.00316993 0)
(1.01054 -0.00322803 0)
(1.01229 -0.00326804 0)
(1.01406 -0.00329386 0)
(1.01584 -0.00331024 0)
(1.01762 -0.00332048 0)
(1.01941 -0.00332312 0)
(1.02119 -0.00331671 0)
(1.02297 -0.0033011 0)
(1.02474 -0.00327631 0)
(1.02649 -0.00324229 0)
(1.02821 -0.00320001 0)
(1.02991 -0.00314986 0)
(1.03158 -0.00308951 0)
(1.03322 -0.00301733 0)
(1.0348 -0.00293403 0)
(1.03634 -0.00284183 0)
(1.03781 -0.00274404 0)
(1.03922 -0.00264456 0)
(1.04057 -0.00254741 0)
(1.04186 -0.00245664 0)
(1.04308 -0.00237605 0)
(1.04425 -0.00230886 0)
(1.04537 -0.00225773 0)
(1.04644 -0.00222474 0)
(1.04746 -0.00221161 0)
(1.04844 -0.00221993 0)
(1.04938 -0.00225089 0)
(1.05029 -0.00230554 0)
(1.05115 -0.00238501 0)
(1.05197 -0.00248984 0)
(1.05273 -0.00261886 0)
(1.05344 -0.00276833 0)
(1.05409 -0.00293133 0)
(1.00019 -0.000825315 0)
(1.00106 -0.00210068 0)
(1.00258 -0.00272725 0)
(1.00417 -0.00306479 0)
(1.00575 -0.00332602 0)
(1.00743 -0.00350151 0)
(1.00916 -0.00360208 0)
(1.01091 -0.00366565 0)
(1.01268 -0.00370954 0)
(1.01445 -0.00373766 0)
(1.01623 -0.00375573 0)
(1.01802 -0.00376735 0)
(1.01981 -0.00377027 0)
(1.0216 -0.00376282 0)
(1.02339 -0.00374485 0)
(1.02516 -0.00371635 0)
(1.02691 -0.00367719 0)
(1.02864 -0.00362877 0)
(1.03034 -0.00357158 0)
(1.03201 -0.00350254 0)
(1.03364 -0.00341967 0)
(1.03522 -0.00332378 0)
(1.03675 -0.00321739 0)
(1.03822 -0.00310429 0)
(1.03962 -0.00298891 0)
(1.04096 -0.00287575 0)
(1.04224 -0.00276935 0)
(1.04345 -0.00267389 0)
(1.0446 -0.00259285 0)
(1.0457 -0.002529 0)
(1.04675 -0.00248433 0)
(1.04775 -0.00246042 0)
(1.04872 -0.00245856 0)
(1.04964 -0.00247955 0)
(1.05052 -0.00252391 0)
(1.05136 -0.00259238 0)
(1.05215 -0.00268518 0)
(1.05289 -0.00280087 0)
(1.05358 -0.0029357 0)
(1.05421 -0.00308314 0)
(1.00023 -0.000991277 0)
(1.00124 -0.00244206 0)
(1.00289 -0.00310116 0)
(1.00453 -0.00345934 0)
(1.00614 -0.00374369 0)
(1.00784 -0.00393127 0)
(1.00959 -0.00403798 0)
(1.01136 -0.00410622 0)
(1.01313 -0.00415338 0)
(1.01492 -0.00418328 0)
(1.01671 -0.00420278 0)
(1.0185 -0.00421568 0)
(1.02029 -0.00421871 0)
(1.02209 -0.00420999 0)
(1.02387 -0.0041894 0)
(1.02564 -0.00415689 0)
(1.02739 -0.00411221 0)
(1.02912 -0.00405736 0)
(1.03081 -0.00399297 0)
(1.03248 -0.00391499 0)
(1.0341 -0.00382107 0)
(1.03568 -0.00371215 0)
(1.0372 -0.00359104 0)
(1.03865 -0.00346209 0)
(1.04004 -0.00333025 0)
(1.04136 -0.00320055 0)
(1.04262 -0.00307801 0)
(1.04381 -0.00296723 0)
(1.04494 -0.00287195 0)
(1.04601 -0.00279504 0)
(1.04703 -0.0027384 0)
(1.04801 -0.00270343 0)
(1.04894 -0.00269118 0)
(1.04984 -0.00270196 0)
(1.05069 -0.00273582 0)
(1.0515 -0.00279313 0)
(1.05226 -0.00287385 0)
(1.05297 -0.00297628 0)
(1.05363 -0.0030967 0)
(1.05422 -0.00322896 0)
(1.00028 -0.00119214 0)
(1.00147 -0.00282025 0)
(1.00327 -0.00349285 0)
(1.00496 -0.00386568 0)
(1.00661 -0.00417003 0)
(1.00834 -0.00436681 0)
(1.01011 -0.00447808 0)
(1.01189 -0.00455004 0)
(1.01368 -0.00459968 0)
(1.01547 -0.00463059 0)
(1.01726 -0.00465107 0)
(1.01905 -0.00466499 0)
(1.02085 -0.00466773 0)
(1.02264 -0.00465733 0)
(1.02442 -0.00463368 0)
(1.02618 -0.00459667 0)
(1.02792 -0.00454591 0)
(1.02964 -0.0044842 0)
(1.03132 -0.00441239 0)
(1.03297 -0.00432513 0)
(1.03458 -0.00421974 0)
(1.03614 -0.00409724 0)
(1.03764 -0.00396081 0)
(1.03907 -0.00381537 0)
(1.04043 -0.00366646 0)
(1.04173 -0.00351961 0)
(1.04295 -0.00338038 0)
(1.04411 -0.00325381 0)
(1.0452 -0.00314386 0)
(1.04624 -0.00305355 0)
(1.04723 -0.00298463 0)
(1.04817 -0.00293834 0)
(1.04906 -0.00291547 0)
(1.04991 -0.00291585 0)
(1.05072 -0.00293899 0)
(1.05149 -0.00298496 0)
(1.05221 -0.00305351 0)
(1.05288 -0.0031427 0)