/*--------------------------------*- C++ -*----------------------------------*\
| =========                 |                                                 |
| \\      /  F ield         | OpenFOAM: The Open Source CFD Toolbox           |
|  \\    /   O peration     | Version:  2306                                  |
|   \\  /    A nd           | Website:  www.openfoam.com                      |
|    \\/     M anipulation  |                                                 |
\*---------------------------------------------------------------------------*/
FoamFile
{
    version     2.0;
    format      ascii;
    arch        "LSB;label=32;scalar=64";
    class       volVectorField;
    location    "500";
    object      wallShearStress;
}
// * * * * * * * * * * * * * * * * * * * * * * * * * * * * * * * * * * * * * //

dimensions      [0 2 -2 0 0 0 0];

internalField   uniform (0 0 0);

boundaryField
{
    inlet
    {
        type            calculated;
        value           uniform (0 0 0);
    }
    outlet
    {
        type            calculated;
        value           uniform (0 0 0);
    }
    topWall
    {
        type            calculated;
        value           nonuniform List<vector> 
340
(
(-0.00782297 3.46003e-05 0)
(-0.00764805 6.4384e-05 0)
(-0.00743913 7.03618e-05 0)
(-0.00722491 7.27861e-05 0)
(-0.00701855 7.34342e-05 0)
(-0.00681854 7.27829e-05 0)
(-0.00662282 7.13445e-05 0)
(-0.00643156 6.9379e-05 0)
(-0.00624537 6.70529e-05 0)
(-0.00606446 6.44666e-05 0)
(-0.00588894 6.17118e-05 0)
(-0.0057192 5.84158e-05 0)
(-0.00555395 5.47156e-05 0)
(-0.00539324 5.12534e-05 0)
(-0.00523784 4.79711e-05 0)
(-0.00508886 4.44844e-05 0)
(-0.00494773 4.11038e-05 0)
(-0.00481351 3.82335e-05 0)
(-0.00468545 3.57273e-05 0)
(-0.00456413 3.31488e-05 0)
(-0.00445085 3.01342e-05 0)
(-0.00434754 2.67117e-05 0)
(-0.00425463 2.31651e-05 0)
(-0.00417212 1.96954e-05 0)
(-0.00409986 1.60863e-05 0)
(-0.00403788 1.24106e-05 0)
(-0.00398575 9.17332e-06 0)
(-0.00394245 6.50884e-06 0)
(-0.00390674 4.39835e-06 0)
(-0.00387734 2.7785e-06 0)
(-0.00385308 1.56397e-06 0)
(-0.00383298 6.61271e-07 0)
(-0.00381613 3.42261e-08 0)
(-0.00380173 -3.64445e-07 0)
(-0.00378915 -7.00691e-07 0)
(-0.00377801 -9.85322e-07 0)
(-0.00376787 -1.09164e-06 0)
(-0.0037583 -1.05854e-06 0)
(-0.00374895 -9.17453e-07 0)
(-0.00373953 -7.00555e-07 0)
(-0.00372988 -4.44044e-07 0)
(-0.00371992 -1.81685e-07 0)
(-0.00370965 5.95909e-08 0)
(-0.00369918 2.49932e-07 0)
(-0.00368866 3.92711e-07 0)
(-0.00367815 5.07886e-07 0)
(-0.00366775 5.81426e-07 0)
(-0.00365754 6.40181e-07 0)
(-0.00364752 7.06277e-07 0)
(-0.00363761 7.95418e-07 0)
(-0.0036277 9.22217e-07 0)
(-0.00361763 1.09964e-06 0)
(-0.00360718 1.34135e-06 0)
(-0.00359611 1.65634e-06 0)
(-0.00358415 2.04877e-06 0)
(-0.00357103 2.5194e-06 0)
(-0.00355647 3.06458e-06 0)
(-0.00354023 3.67392e-06 0)
(-0.0035221 4.33612e-06 0)
(-0.00350191 5.03914e-06 0)
(-0.00347954 5.76492e-06 0)
(-0.00345491 6.49714e-06 0)
(-0.00342801 7.21348e-06 0)
(-0.0033989 7.89292e-06 0)
(-0.00336769 8.52107e-06 0)
(-0.00333452 9.08744e-06 0)
(-0.00329958 9.5855e-06 0)
(-0.00326308 1.00143e-05 0)
(-0.00322522 1.03788e-05 0)
(-0.00318617 1.06893e-05 0)
(-0.00314608 1.09723e-05 0)
(-0.00310497 1.12096e-05 0)
(-0.00306293 1.12817e-05 0)
(-0.00302011 1.12684e-05 0)
(-0.00297636 1.13887e-05 0)
(-0.00293122 1.17037e-05 0)
(-0.0028841 1.22416e-05 0)
(-0.0028343 1.30177e-05 0)
(-0.00278106 1.40377e-05 0)
(-0.0027235 1.53038e-05 0)
(-0.00266073 1.68201e-05 0)
(-0.00259183 1.85761e-05 0)
(-0.00251586 2.06179e-05 0)
(-0.00243192 2.2767e-05 0)
(-0.00233862 2.49438e-05 0)
(-0.00223526 2.72953e-05 0)
(-0.00212148 2.96932e-05 0)
(-0.00199723 3.19872e-05 0)
(-0.0018628 3.40319e-05 0)
(-0.00171897 3.56792e-05 0)
(-0.00156704 3.67809e-05 0)
(-0.00140903 3.7191e-05 0)
(-0.00124736 3.68687e-05 0)
(-0.00108496 3.53773e-05 0)
(-0.000927625 3.1439e-05 0)
(-0.0007838 2.6237e-05 0)
(-0.000653122 2.3068e-05 0)
(-0.000531277 2.09579e-05 0)
(-0.000417219 1.90131e-05 0)
(-0.000311284 1.6782e-05 0)
(-0.000214162 1.37301e-05 0)
(-0.000124883 1.14975e-05 0)
(-4.14219e-05 9.6424e-06 0)
(2.55138e-05 5.24657e-06 0)
(6.12815e-05 1.31334e-06 0)
(7.76573e-05 -6.63886e-07 0)
(8.33659e-05 -1.27551e-06 0)
(8.70549e-05 -1.49536e-06 0)
(9.01223e-05 -1.64925e-06 0)
(9.26304e-05 -1.77023e-06 0)
(9.34712e-05 -1.84899e-06 0)
(9.26583e-05 -2.01065e-06 0)
(8.98883e-05 -2.28073e-06 0)
(8.488e-05 -2.60588e-06 0)
(7.76987e-05 -2.93674e-06 0)
(6.80081e-05 -3.20217e-06 0)
(5.58899e-05 -3.60232e-06 0)
(4.19765e-05 -3.83931e-06 0)
(2.66571e-05 -3.88584e-06 0)
(9.50779e-06 -4.13677e-06 0)
(-9.23367e-06 -4.49443e-06 0)
(-2.54097e-05 -4.07836e-06 0)
(-3.3006e-05 -2.45591e-06 0)
(-3.02115e-05 1.15556e-06 0)
(-2.83335e-05 5.22393e-06 0)
(-4.7737e-05 6.71116e-06 0)
(-0.000105397 1.77538e-06 0)
(-0.000202958 -1.26476e-05 0)
(-0.000336254 -2.65486e-05 0)
(-0.000483642 -3.33956e-05 0)
(-0.000623689 -3.15634e-05 0)
(-0.000729306 -1.93152e-05 0)
(-0.000761281 1.27947e-06 0)
(-0.000697472 1.73103e-05 0)
(-0.000579397 1.88936e-05 0)
(-0.000464116 8.8279e-06 0)
(-0.000392179 -4.89423e-07 0)
(-0.000328103 1.08296e-06 0)
(-0.000204861 1.69704e-05 0)
(8.37406e-07 3.74634e-05 0)
(0.000202086 4.93796e-05 0)
(0.000324998 4.11765e-05 0)
(0.000388676 2.89228e-05 0)
(0.000412348 1.91444e-05 0)
(0.000405793 1.22034e-05 0)
(0.00037228 7.71122e-06 0)
(0.000314369 3.27013e-06 0)
(0.000242618 -1.23573e-06 0)
(0.000153888 -7.4233e-06 0)
(4.90431e-05 -1.55741e-05 0)
(-7.85427e-05 -1.51212e-05 0)
(-0.000215574 -1.88942e-05 0)
(-0.000376618 -2.82931e-05 0)
(-0.00055224 -3.42086e-05 0)
(-0.000740878 -3.92099e-05 0)
(-0.000938198 -4.41759e-05 0)
(-0.0011395 -4.69317e-05 0)
(-0.00132827 -4.23631e-05 0)
(-0.00148827 -3.10933e-05 0)
(-0.00160166 -1.27555e-05 0)
(-0.00163428 1.19114e-05 0)
(-0.00156457 3.12815e-05 0)
(-0.00141049 4.07305e-05 0)
(-0.00120148 4.327e-05 0)
(-0.000977181 3.921e-05 0)
(-0.000769573 3.02435e-05 0)
(-0.000594005 2.05107e-05 0)
(-0.000469573 1.33671e-05 0)
(-0.000429884 5.76673e-06 0)
(-0.000485217 -9.47455e-06 0)
(-0.000570256 -2.04666e-05 0)
(-0.000639135 -2.09798e-05 0)
(-0.0006823 -1.66473e-05 0)
(-0.000638254 4.07791e-06 0)
(-0.000394839 4.51045e-05 0)
(2.1086e-05 9.6348e-05 0)
(0.000310223 8.4938e-05 0)
(0.000329951 4.8169e-05 0)
(0.000247952 9.48971e-06 0)
(0.000112873 -2.08776e-05 0)
(-5.48861e-05 -3.96644e-05 0)
(-0.000228879 -4.50753e-05 0)
(-0.00040335 -4.85783e-05 0)
(-0.000563615 -4.47672e-05 0)
(-0.000705138 -3.84323e-05 0)
(-0.000826348 -3.13942e-05 0)
(-0.000927527 -2.46232e-05 0)
(-0.00101015 -1.86026e-05 0)
(-0.00107629 -1.35086e-05 0)
(-0.00112817 -9.33231e-06 0)
(-0.00116784 -5.97119e-06 0)
(-0.00119707 -3.36403e-06 0)
(-0.00121742 -1.31863e-06 0)
(-0.00123015 3.20924e-07 0)
(-0.00123625 1.59782e-06 0)
(-0.00123646 2.50481e-06 0)
(-0.00123217 3.20158e-06 0)
(-0.00122465 3.57083e-06 0)
(-0.00121483 3.75021e-06 0)
(-0.0012033 3.83239e-06 0)
(-0.00119054 3.83616e-06 0)
(-0.00117687 3.75033e-06 0)
(-0.0011626 3.59653e-06 0)
(-0.00114799 3.43991e-06 0)
(-0.0011333 3.27204e-06 0)
(-0.00111884 3.06215e-06 0)
(-0.00110487 2.8298e-06 0)
(-0.00109152 2.59468e-06 0)
(-0.00107889 2.36645e-06 0)
(-0.00106703 2.1461e-06 0)
(-0.001056 1.93449e-06 0)
(-0.00104582 1.7338e-06 0)
(-0.0010365 1.54526e-06 0)
(-0.00102803 1.36917e-06 0)
(-0.00102037 1.20545e-06 0)
(-0.0010135 1.05425e-06 0)
(-0.00100737 9.15355e-07 0)
(-0.00100192 7.87811e-07 0)
(-0.000997094 6.70427e-07 0)
(-0.00099284 5.6162e-07 0)
(-0.000989103 4.59204e-07 0)
(-0.000985838 3.61985e-07 0)
(-0.000983007 2.707e-07 0)
(-0.000980583 1.82289e-07 0)
(-0.000978547 9.52622e-08 0)
(-0.000976886 1.06374e-08 0)
(-0.000975607 -6.80509e-08 0)
(-0.000974731 -1.46954e-07 0)
(-0.000974273 -2.48719e-07 0)
(-0.000974277 -3.52506e-07 0)
(-0.000974882 -4.42297e-07 0)
(-0.000976316 -5.53913e-07 0)
(-0.000978897 -7.20264e-07 0)
(-0.00098292 -9.30974e-07 0)
(-0.000988525 -1.15815e-06 0)
(-0.00099563 -1.36565e-06 0)
(-0.00100393 -1.51975e-06 0)
(-0.00101301 -1.59964e-06 0)
(-0.00102247 -1.60654e-06 0)
(-0.00103195 -1.55054e-06 0)
(-0.00104113 -1.44111e-06 0)
(-0.00104975 -1.28603e-06 0)
(-0.00105757 -1.0926e-06 0)
(-0.0010644 -8.69337e-07 0)
(-0.00107008 -6.29459e-07 0)
(-0.00107451 -3.85391e-07 0)
(-0.00107759 -1.44485e-07 0)
(-0.00107931 9.56116e-08 0)
(-0.00107966 3.68005e-07 0)
(-0.00107874 6.06887e-07 0)
(-0.00107667 7.83292e-07 0)
(-0.00107359 9.49754e-07 0)
(-0.00106962 1.10224e-06 0)
(-0.00106492 1.2246e-06 0)
(-0.00105962 1.31725e-06 0)
(-0.00105384 1.39681e-06 0)
(-0.0010477 1.45769e-06 0)
(-0.00104131 1.49731e-06 0)
(-0.00103478 1.52025e-06 0)
(-0.0010282 1.52857e-06 0)
(-0.00102164 1.52599e-06 0)
(-0.00101515 1.5161e-06 0)
(-0.00100877 1.50303e-06 0)
(-0.00100249 1.49089e-06 0)
(-0.000996317 1.48252e-06 0)
(-0.000990244 1.48042e-06 0)
(-0.000984221 1.48804e-06 0)
(-0.000978204 1.5077e-06 0)
(-0.00097215 1.53774e-06 0)
(-0.000966013 1.57386e-06 0)
(-0.000959778 1.61209e-06 0)
(-0.00095346 1.64893e-06 0)
(-0.000947101 1.67822e-06 0)
(-0.000940788 1.69125e-06 0)
(-0.000934633 1.68227e-06 0)
(-0.000928724 1.65076e-06 0)
(-0.000923082 1.60229e-06 0)
(-0.000917558 1.5534e-06 0)
(-0.000911679 1.53879e-06 0)
(-0.000904696 1.60052e-06 0)
(-0.000895921 1.72803e-06 0)
(-0.000885199 1.83381e-06 0)
(-0.000873014 1.79821e-06 0)
(-0.000860128 1.57037e-06 0)
(-0.000847034 1.10606e-06 0)
(-0.000833554 5.39265e-07 0)
(-0.000818781 8.78181e-08 0)
(-0.000801322 -9.06258e-08 0)
(-0.00077986 6.09986e-08 0)
(-0.000753719 5.55832e-07 0)
(-0.00072323 1.36762e-06 0)
(-0.000689979 2.35773e-06 0)
(-0.000656743 3.29082e-06 0)
(-0.000626957 3.96861e-06 0)
(-0.000603768 4.20815e-06 0)
(-0.000589217 3.90258e-06 0)
(-0.00058397 3.05973e-06 0)
(-0.000587552 1.80251e-06 0)
(-0.000598677 3.67768e-07 0)
(-0.000615604 -9.74986e-07 0)
(-0.000636472 -1.9688e-06 0)
(-0.000659412 -2.70489e-06 0)
(-0.00068304 -3.18084e-06 0)
(-0.000706341 -3.40784e-06 0)
(-0.000728632 -3.43835e-06 0)
(-0.000749533 -3.33456e-06 0)
(-0.000768888 -3.15191e-06 0)
(-0.000786696 -2.93263e-06 0)
(-0.000803043 -2.70501e-06 0)
(-0.000818061 -2.48576e-06 0)
(-0.000831891 -2.28308e-06 0)
(-0.000844667 -2.0997e-06 0)
(-0.000856507 -1.93516e-06 0)
(-0.000867509 -1.78747e-06 0)
(-0.000877752 -1.65396e-06 0)
(-0.000887297 -1.53194e-06 0)
(-0.00089619 -1.41898e-06 0)
(-0.000904467 -1.31315e-06 0)
(-0.000912153 -1.21297e-06 0)
(-0.00091927 -1.11739e-06 0)
(-0.000925832 -1.02568e-06 0)
(-0.000931856 -9.37518e-07 0)
(-0.00093736 -8.53166e-07 0)
(-0.000942363 -7.73184e-07 0)
(-0.00094689 -6.98004e-07 0)
(-0.000950966 -6.28079e-07 0)
(-0.000954625 -5.63999e-07 0)
(-0.000957904 -5.0652e-07 0)
(-0.000960844 -4.56272e-07 0)
(-0.000963492 -4.1355e-07 0)
(-0.000965892 -3.7857e-07 0)
(-0.000968095 -3.51234e-07 0)
(-0.000970141 -3.3259e-07 0)
(-0.000972109 -3.21559e-07 0)
(-0.000973954 -3.21469e-07 0)
(-0.000975974 -3.28657e-07 0)
(-0.000977533 -3.23998e-07 0)
(-0.000980228 -3.89082e-07 0)
(-0.000980586 -3.83665e-08 0)
(-0.000984176 -6.8588e-07 0)
)
;
    }
    bottomWall
    {
        type            calculated;
        value           nonuniform List<vector> 
300
(
(-1.70305e-05 6.27774e-06 0)
(-4.53548e-05 2.39452e-06 0)
(-6.01283e-05 7.90766e-07 0)
(-6.40252e-05 6.09718e-07 0)
(-6.93612e-05 2.15888e-06 0)
(-8.31003e-05 3.36914e-06 0)
(-0.000101378 5.15986e-06 0)
(-0.000123785 8.11506e-06 0)
(-0.000150643 1.05498e-05 0)
(-0.000177152 1.04595e-05 0)
(-0.000192865 6.21411e-06 0)
(-0.000186099 -7.06435e-07 0)
(-0.00015645 -5.77178e-06 0)
(-0.000117634 -5.288e-06 0)
(-7.96814e-05 -4.51605e-06 0)
(-3.2526e-05 -7.06104e-06 0)
(4.57181e-05 -9.48293e-06 0)
(0.000143325 -1.10743e-05 0)
(0.000257363 -1.51943e-05 0)
(0.000385599 -2.16012e-05 0)
(0.00052626 -2.84188e-05 0)
(0.000670024 -3.07869e-05 0)
(0.000804115 -2.98784e-05 0)
(0.000924712 -2.82408e-05 0)
(0.0010315 -2.64873e-05 0)
(0.00112487 -2.48824e-05 0)
(0.00120441 -2.21239e-05 0)
(0.00126957 -1.78185e-05 0)
(0.00132196 -1.36799e-05 0)
(0.00136418 -1.05758e-05 0)
(0.0013991 -8.31554e-06 0)
(0.00142934 -6.87139e-06 0)
(0.00145717 -6.11661e-06 0)
(0.00148443 -5.90975e-06 0)
(0.00151238 -6.11414e-06 0)
(0.00154198 -6.61318e-06 0)
(0.0015737 -7.30846e-06 0)
(0.00160765 -8.08492e-06 0)
(0.00164372 -8.78886e-06 0)
(0.00168128 -9.37688e-06 0)
(0.0017197 -9.94553e-06 0)
(0.0017581 -1.04248e-05 0)
(0.00179587 -1.04898e-05 0)
(0.00183205 -1.01223e-05 0)
(0.00186561 -9.66501e-06 0)
(0.00189534 -9.19924e-06 0)
(0.0019203 -8.67353e-06 0)
(0.00193965 -7.99181e-06 0)
(0.00195304 -7.23444e-06 0)
(0.00195998 -6.27328e-06 0)
(0.00196039 -5.07074e-06 0)
(0.00195415 -3.70438e-06 0)
(0.00194153 -2.37631e-06 0)
(0.00192284 -7.5735e-07 0)
(0.00189836 8.44468e-07 0)
(0.00186824 2.07655e-06 0)
(0.00183255 3.12241e-06 0)
(0.00179147 4.08558e-06 0)
(0.00174549 4.97382e-06 0)
(0.00169481 5.76691e-06 0)
(0.0016399 6.42894e-06 0)
(0.00158091 6.96575e-06 0)
(0.0015183 7.53001e-06 0)
(0.00145228 8.3786e-06 0)
(0.00138344 9.67715e-06 0)
(0.00131085 1.07642e-05 0)
(0.00123583 1.12675e-05 0)
(0.00115853 1.17984e-05 0)
(0.00107932 1.22977e-05 0)
(0.000998408 1.27781e-05 0)
(0.000916145 1.32207e-05 0)
(0.000832817 1.36033e-05 0)
(0.000748718 1.39739e-05 0)
(0.000663948 1.45384e-05 0)
(0.000578689 1.55984e-05 0)
(0.000493219 1.72203e-05 0)
(0.000406812 1.88694e-05 0)
(0.000315721 1.95733e-05 0)
(0.000231545 1.81813e-05 0)
(0.00014653 1.89724e-05 0)
(6.18508e-05 2.05203e-05 0)
(-2.34959e-05 2.04775e-05 0)
(-0.000108106 1.67681e-05 0)
(-0.000189437 1.63645e-05 0)
(-0.000273191 1.73157e-05 0)
(-0.000355975 1.71541e-05 0)
(-0.000437448 1.66698e-05 0)
(-0.000517791 1.61792e-05 0)
(-0.000596801 1.56949e-05 0)
(-0.000674254 1.51782e-05 0)
(-0.000749654 1.45893e-05 0)
(-0.000822572 1.38804e-05 0)
(-0.000892182 1.30038e-05 0)
(-0.000957726 1.19298e-05 0)
(-0.00101828 1.06396e-05 0)
(-0.00107294 9.13433e-06 0)
(-0.00112084 7.43993e-06 0)
(-0.00116137 5.59182e-06 0)
(-0.00119391 3.66643e-06 0)
(-0.00121838 1.82656e-06 0)
(-0.00123464 2.23367e-08 0)
(-0.00124319 -1.60653e-06 0)
(-0.00124367 -3.11543e-06 0)
(-0.00123696 -4.41699e-06 0)
(-0.00122524 -4.90697e-06 0)
(-0.00121067 -4.91679e-06 0)
(-0.00119509 -4.62222e-06 0)
(-0.00118013 -3.99412e-06 0)
(-0.00116691 -3.12944e-06 0)
(-0.00115559 -2.1985e-06 0)
(-0.00114631 -1.35999e-06 0)
(-0.00113822 -7.36504e-07 0)
(-0.00113112 -2.33365e-07 0)
(-0.00112455 1.2425e-07 0)
(-0.00111851 3.23441e-07 0)
(-0.00111335 3.7806e-07 0)
(-0.00110986 3.17042e-07 0)
(-0.00110926 3.53681e-07 0)
(-0.00111608 8.85491e-07 0)
(-0.00113477 2.40415e-06 0)
(-0.00116882 4.71428e-06 0)
(-0.00121768 7.30073e-06 0)
(-0.00127737 9.41633e-06 0)
(-0.00134249 1.02327e-05 0)
(-0.00140621 9.09976e-06 0)
(-0.00146044 6.27663e-06 0)
(-0.00149615 1.10748e-06 0)
(-0.00150082 -6.53989e-06 0)
(-0.0014718 -1.41048e-05 0)
(-0.00141314 -1.86614e-05 0)
(-0.00133113 -2.17589e-05 0)
(-0.00123333 -2.25415e-05 0)
(-0.00112867 -2.12286e-05 0)
(-0.00102521 -1.86288e-05 0)
(-0.000929584 -1.54032e-05 0)
(-0.000846356 -1.19683e-05 0)
(-0.000778567 -8.57423e-06 0)
(-0.000727476 -5.3618e-06 0)
(-0.000693639 -2.44798e-06 0)
(-0.000675773 8.10375e-08 0)
(-0.000672287 2.1057e-06 0)
(-0.000680243 4.01004e-06 0)
(-0.000697086 5.31959e-06 0)
(-0.000720392 6.26731e-06 0)
(-0.000748659 6.92855e-06 0)
(-0.000779355 7.07559e-06 0)
(-0.000810403 6.75698e-06 0)
(-0.000838961 5.86954e-06 0)
(-0.000863655 4.60816e-06 0)
(-0.000883214 3.12595e-06 0)
(-0.00089745 1.67207e-06 0)
(-0.000906021 3.71108e-07 0)
(-0.000909055 -9.346e-07 0)
(-0.00090649 -2.1735e-06 0)
(-0.00089943 -2.94613e-06 0)
(-0.000888934 -3.37041e-06 0)
(-0.000876154 -3.60898e-06 0)
(-0.000861783 -3.655e-06 0)
(-0.000846627 -3.54701e-06 0)
(-0.000831113 -3.32888e-06 0)
(-0.000815769 -3.04857e-06 0)
(-0.000800837 -2.73664e-06 0)
(-0.000786653 -2.40132e-06 0)
(-0.000773334 -2.05547e-06 0)
(-0.000761052 -1.69821e-06 0)
(-0.000749824 -1.34082e-06 0)
(-0.000739717 -9.93716e-07 0)
(-0.000730695 -6.53741e-07 0)
(-0.00072277 -3.18281e-07 0)
(-0.000715888 -2.0871e-09 0)
(-0.000710045 2.91967e-07 0)
(-0.000705235 5.45507e-07 0)
(-0.000701502 7.56912e-07 0)
(-0.000698943 9.18442e-07 0)
(-0.000697701 1.04696e-06 0)
(-0.000697982 1.15784e-06 0)
(-0.000699965 1.23771e-06 0)
(-0.000703817 1.32459e-06 0)
(-0.000709684 1.46463e-06 0)
(-0.000717663 1.61128e-06 0)
(-0.000727684 1.78089e-06 0)
(-0.000739619 1.95759e-06 0)
(-0.000753151 2.12938e-06 0)
(-0.000767975 2.27665e-06 0)
(-0.000783694 2.39382e-06 0)
(-0.000800017 2.4713e-06 0)
(-0.000816578 2.51186e-06 0)
(-0.000833163 2.51441e-06 0)
(-0.000849502 2.48929e-06 0)
(-0.000865496 2.44043e-06 0)
(-0.000880967 2.37726e-06 0)
(-0.000895876 2.29899e-06 0)
(-0.000910068 2.21126e-06 0)
(-0.000923543 2.1139e-06 0)
(-0.000936173 2.01297e-06 0)
(-0.000947993 1.90786e-06 0)
(-0.000958899 1.80327e-06 0)
(-0.000968962 1.69815e-06 0)
(-0.000978097 1.59668e-06 0)
(-0.000986416 1.49944e-06 0)
(-0.000993878 1.41244e-06 0)
(-0.00100066 1.33709e-06 0)
(-0.00100677 1.27677e-06 0)
(-0.00101244 1.23046e-06 0)
(-0.00101768 1.19982e-06 0)
(-0.00102276 1.18481e-06 0)
(-0.00102774 1.189e-06 0)
(-0.00103294 1.21553e-06 0)
(-0.00103847 1.26776e-06 0)
(-0.00104467 1.34886e-06 0)
(-0.00105166 1.45929e-06 0)
(-0.00105977 1.5985e-06 0)
(-0.00106905 1.76187e-06 0)
(-0.00107977 1.94397e-06 0)
(-0.00109192 2.13826e-06 0)
(-0.00110567 2.34236e-06 0)
(-0.00112094 2.54788e-06 0)
(-0.0011378 2.75191e-06 0)
(-0.00115612 2.94991e-06 0)
(-0.0011759 3.1412e-06 0)
(-0.00119698 3.31599e-06 0)
(-0.00121926 3.46785e-06 0)
(-0.00124251 3.583e-06 0)
(-0.00126652 3.65104e-06 0)
(-0.00129092 3.65438e-06 0)
(-0.00131539 3.57929e-06 0)
(-0.00133944 3.40666e-06 0)
(-0.00136261 3.13244e-06 0)
(-0.00138436 2.75452e-06 0)
(-0.00140416 2.28622e-06 0)
(-0.00142139 1.75646e-06 0)
(-0.00143572 1.18091e-06 0)
(-0.00144663 5.41592e-07 0)
(-0.00145346 -1.65862e-07 0)
(-0.00145543 -9.75823e-07 0)
(-0.00145219 -1.8803e-06 0)
(-0.00144327 -2.70876e-06 0)
(-0.00142846 -3.65053e-06 0)
(-0.00140753 -4.5948e-06 0)
(-0.0013806 -5.47606e-06 0)
(-0.00134829 -6.27356e-06 0)
(-0.00131127 -6.93518e-06 0)
(-0.00127084 -7.41486e-06 0)
(-0.00122829 -7.68085e-06 0)
(-0.00118514 -7.71671e-06 0)
(-0.00114278 -7.52652e-06 0)
(-0.00110245 -7.14069e-06 0)
(-0.00106499 -6.59551e-06 0)
(-0.00103115 -5.95331e-06 0)
(-0.00100102 -5.26297e-06 0)
(-0.000974806 -4.5695e-06 0)
(-0.000952189 -3.9026e-06 0)
(-0.000933052 -3.28584e-06 0)
(-0.0009169 -2.7311e-06 0)
(-0.000903502 -2.24509e-06 0)
(-0.000892343 -1.82788e-06 0)
(-0.000883199 -1.47753e-06 0)
(-0.000875598 -1.18867e-06 0)
(-0.000869371 -9.55733e-07 0)
(-0.00086411 -7.72647e-07 0)
(-0.000859713 -6.32091e-07 0)
(-0.000855846 -5.28272e-07 0)
(-0.000852472 -4.53471e-07 0)
(-0.000849334 -4.03532e-07 0)
(-0.000846443 -3.71815e-07 0)
(-0.000843606 -3.55919e-07 0)
(-0.000840868 -3.5027e-07 0)
(-0.000838094 -3.53376e-07 0)
(-0.000835368 -3.59185e-07 0)
(-0.000832608 -3.65669e-07 0)
(-0.000829923 -3.67716e-07 0)
(-0.000827252 -3.66815e-07 0)
(-0.000824685 -3.61295e-07 0)
(-0.000822155 -3.54607e-07 0)
(-0.00081973 -3.4509e-07 0)
(-0.000817344 -3.36019e-07 0)
(-0.000815052 -3.25221e-07 0)
(-0.000812794 -3.1524e-07 0)
(-0.000810624 -3.02708e-07 0)
(-0.000808502 -2.89663e-07 0)
(-0.00080648 -2.72781e-07 0)
(-0.00080453 -2.54739e-07 0)
(-0.000802702 -2.32381e-07 0)
(-0.00080098 -2.08706e-07 0)
(-0.000799405 -1.8091e-07 0)
(-0.000797968 -1.5241e-07 0)
(-0.000796705 -1.20933e-07 0)
(-0.000795609 -8.99226e-08 0)
(-0.000794711 -5.66576e-08 0)
(-0.000794001 -2.52986e-08 0)
(-0.000793505 7.37616e-09 0)
(-0.000793207 3.71927e-08 0)
(-0.000793129 7.04961e-08 0)
(-0.000793257 1.0208e-07 0)
(-0.000793617 1.31194e-07 0)
(-0.000794193 1.56024e-07 0)
(-0.00079494 1.88725e-07 0)
(-0.000796129 1.78246e-07 0)
(-0.000796659 1.02564e-07 0)
(-0.000798612 1.59314e-07 0)
)
;
    }
    stepWall
    {
        type            calculated;
        value           nonuniform List<vector> 
40
(
(-7.55596e-06 -1.17353e-05 0)
(-1.57267e-05 -1.88293e-06 0)
(-1.91867e-05 5.59072e-06 0)
(-1.93738e-05 1.24482e-05 0)
(-1.65821e-05 1.89602e-05 0)
(-1.33028e-05 2.41946e-05 0)
(-9.80326e-06 2.77354e-05 0)
(-6.25727e-06 2.95781e-05 0)
(-2.71267e-06 3.14942e-05 0)
(3.998e-07 3.12738e-05 0)
(3.22e-06 3.01052e-05 0)
(5.86415e-06 2.83084e-05 0)
(8.41282e-06 2.59493e-05 0)
(1.10998e-05 2.30063e-05 0)
(1.45988e-05 1.96449e-05 0)
(1.61966e-05 1.63463e-05 0)
(1.78408e-05 1.2689e-05 0)
(1.92463e-05 8.65786e-06 0)
(2.05195e-05 4.15836e-06 0)
(1.96628e-05 -9.49979e-07 0)
(1.96664e-05 -5.71576e-06 0)
(2.15153e-05 -9.7982e-06 0)
(2.20064e-05 -1.42126e-05 0)
(2.23457e-05 -1.86526e-05 0)
(2.30369e-05 -2.29703e-05 0)
(2.27019e-05 -2.78726e-05 0)
(2.20611e-05 -3.30277e-05 0)
(2.13328e-05 -3.80678e-05 0)
(2.05582e-05 -4.29873e-05 0)
(1.97564e-05 -4.78497e-05 0)
(1.88594e-05 -5.27159e-05 0)
(1.79206e-05 -5.74316e-05 0)
(1.70518e-05 -6.18465e-05 0)
(1.60172e-05 -6.60484e-05 0)
(1.46569e-05 -6.97807e-05 0)
(1.26623e-05 -7.20114e-05 0)
(1.02732e-05 -7.6399e-05 0)
(5.19938e-06 -8.76387e-05 0)
(-2.51766e-05 -0.000139021 0)
(-0.000283525 -0.000716637 0)
)
;
    }
    stepTop
    {
        type            calculated;
        value           nonuniform List<vector> 
40
(
(-0.00782297 -3.46003e-05 0)
(-0.00764805 -6.43839e-05 0)
(-0.00743913 -7.03616e-05 0)
(-0.00722491 -7.27859e-05 0)
(-0.00701855 -7.34339e-05 0)
(-0.00681855 -7.27824e-05 0)
(-0.00662283 -7.13439e-05 0)
(-0.00643157 -6.93781e-05 0)
(-0.00624538 -6.70515e-05 0)
(-0.00606448 -6.44647e-05 0)
(-0.00588897 -6.17091e-05 0)
(-0.00571924 -5.84121e-05 0)
(-0.00555401 -5.47105e-05 0)
(-0.00539331 -5.12461e-05 0)
(-0.00523794 -4.79611e-05 0)
(-0.00508901 -4.44703e-05 0)
(-0.00494793 -4.10843e-05 0)
(-0.00481379 -3.82065e-05 0)
(-0.00468584 -3.56895e-05 0)
(-0.00456467 -3.30971e-05 0)
(-0.00445158 -3.00647e-05 0)
(-0.00434853 -2.66193e-05 0)
(-0.00425596 -2.30443e-05 0)
(-0.00417388 -1.95343e-05 0)
(-0.0041022 -1.58929e-05 0)
(-0.00404092 -1.21891e-05 0)
(-0.00398965 -8.88576e-06 0)
(-0.00394746 -6.13186e-06 0)
(-0.00391318 -3.90007e-06 0)
(-0.00388562 -2.17725e-06 0)
(-0.00386374 -7.84029e-07 0)
(-0.0038467 3.52924e-07 0)
(-0.00383379 1.30048e-06 0)
(-0.00382457 2.25453e-06 0)
(-0.00381894 3.23929e-06 0)
(-0.00381694 4.18555e-06 0)
(-0.00381821 4.94145e-06 0)
(-0.00382244 6.92481e-06 0)
(-0.00383687 6.72285e-06 0)
(-0.0038354 2.01893e-05 0)
)
;
    }
    frontAndBack
    {
        type            empty;
    }
}


// ************************************************************************* //
