/*--------------------------------*- C++ -*----------------------------------*\
| =========                 |                                                 |
| \\      /  F ield         | OpenFOAM: The Open Source CFD Toolbox           |
|  \\    /   O peration     | Version:  2306                                  |
|   \\  /    A nd           | Website:  www.openfoam.com                      |
|    \\/     M anipulation  |                                                 |
\*---------------------------------------------------------------------------*/
FoamFile
{
    version     2.0;
    format      ascii;
    arch        "LSB;label=32;scalar=64";
    class       volScalarField;
    location    "2000";
    object      k;
}
// * * * * * * * * * * * * * * * * * * * * * * * * * * * * * * * * * * * * * //

dimensions      [0 2 -2 0 0 0 0];

internalField   nonuniform List<scalar> 
25600
(
0.00541281
0.00844037
0.0107735
0.012308
0.0131509
0.0134798
0.0134616
0.0132257
0.0128626
0.0124315
0.0119688
0.0114968
0.0110314
0.0105787
0.0101411
0.00972113
0.00932321
0.00895198
0.00860598
0.00828247
0.00798133
0.00770406
0.00745302
0.00722971
0.00703458
0.00686759
0.00672816
0.00661477
0.006525
0.00645593
0.00640451
0.00636789
0.00634361
0.0063297
0.00632499
0.00632866
0.00634106
0.00636026
0.00639845
0.00641621
0.00376626
0.00380934
0.00385489
0.00389299
0.00391174
0.00390551
0.00387696
0.00383404
0.00378682
0.00374529
0.00371828
0.00371502
0.00373969
0.0037981
0.00389789
0.00404677
0.00426323
0.00452887
0.00481686
0.00512263
0.00543919
0.00573885
0.00601854
0.00628058
0.00652777
0.00676208
0.00698524
0.00719771
0.00740013
0.00759262
0.00777504
0.0079472
0.00810895
0.00826021
0.00840081
0.00853076
0.0086495
0.00875496
0.00885598
0.0089031
0.00372504
0.00366277
0.00358563
0.00349437
0.00339186
0.00328206
0.00316877
0.00305532
0.0029446
0.00283949
0.00274276
0.00265643
0.00258262
0.00252358
0.00248171
0.00245862
0.00245668
0.00247643
0.00251679
0.00257682
0.00265534
0.00275081
0.00286188
0.00298832
0.00313075
0.00329055
0.00347418
0.00366222
0.00384878
0.00403269
0.00421406
0.0043932
0.00457013
0.00474458
0.00491603
0.00508371
0.00524693
0.00540236
0.00555094
0.00567143
0.00372401
0.00367096
0.00361354
0.00355013
0.0034806
0.00340569
0.00332658
0.00324455
0.00316092
0.0030765
0.00299187
0.00290879
0.0028284
0.00275162
0.00267926
0.00261203
0.0025506
0.00249589
0.00244828
0.00240823
0.00237617
0.0023525
0.00233751
0.00233144
0.00233507
0.00234889
0.00237275
0.0024056
0.00244648
0.00249505
0.00255136
0.00261632
0.00268799
0.00276392
0.0028434
0.00292642
0.00301319
0.00310274
0.00319422
0.00327975
0.00372382
0.00367222
0.00362071
0.00356797
0.00351321
0.0034561
0.00339667
0.00333519
0.00327212
0.00320788
0.00314283
0.00307745
0.00301226
0.00294775
0.00288437
0.00282254
0.00276261
0.00270457
0.00264915
0.00259668
0.00254742
0.0025016
0.00245944
0.00242115
0.00238692
0.00235683
0.00233096
0.00230926
0.00229168
0.00227817
0.00226878
0.00226371
0.00226312
0.00226695
0.00227525
0.00228769
0.00230368
0.00232264
0.00234404
0.00236656
0.00372355
0.0036719
0.00362147
0.00357168
0.00352202
0.00347205
0.00342142
0.00336998
0.00331773
0.00326477
0.00321123
0.00315729
0.00310315
0.00304904
0.00299519
0.00294183
0.00288919
0.0028374
0.00278667
0.0027372
0.00268918
0.00264277
0.00259812
0.00255535
0.00251459
0.00247595
0.00243949
0.00240524
0.0023732
0.00234334
0.00231566
0.00229016
0.00226689
0.0022459
0.00222723
0.00221087
0.00219668
0.00218449
0.00217409
0.00216529
0.00372344
0.00367152
0.00362107
0.00357185
0.00352363
0.00347614
0.0034291
0.00338225
0.00333542
0.00328852
0.00324152
0.00319443
0.00314729
0.00310017
0.00305316
0.00300637
0.00295992
0.00291389
0.00286841
0.00282357
0.00277948
0.00273626
0.00269399
0.00265276
0.00261266
0.00257376
0.00253612
0.00249981
0.00246485
0.00243125
0.00239902
0.00236816
0.00233868
0.00231058
0.00228389
0.00225861
0.00223472
0.00221218
0.00219092
0.0021709
0.00372337
0.00367132
0.00362071
0.00357146
0.00352348
0.00347665
0.0034308
0.00338574
0.0033413
0.00329735
0.00325379
0.00321053
0.00316753
0.00312478
0.00308227
0.00304002
0.00299806
0.00295643
0.00291519
0.00287437
0.00283405
0.00279426
0.00275508
0.00271655
0.00267872
0.00264165
0.00260539
0.00256996
0.00253542
0.00250179
0.00246908
0.00243731
0.00240649
0.00237663
0.00234774
0.00231982
0.00229289
0.00226694
0.00224195
0.00221794
0.00372333
0.00367117
0.00362044
0.0035711
0.00352309
0.00347635
0.00343078
0.00338627
0.0033427
0.00329997
0.00325797
0.00321662
0.00317583
0.00313555
0.00309572
0.00305632
0.00301732
0.00297872
0.00294052
0.00290273
0.00286536
0.00282844
0.00279198
0.00275602
0.00272057
0.00268566
0.00265133
0.00261759
0.00258448
0.00255201
0.00252021
0.00248909
0.00245866
0.00242894
0.00239993
0.00237165
0.00234411
0.00231731
0.00229127
0.00226599
0.0037233
0.00367107
0.00362026
0.00357083
0.00352275
0.00347596
0.0034304
0.003386
0.00334268
0.00330036
0.00325896
0.00321842
0.00317865
0.00313959
0.00310119
0.00306339
0.00302614
0.00298942
0.00295319
0.00291744
0.00288215
0.00284732
0.00281294
0.00277901
0.00274554
0.00271254
0.00268001
0.00264796
0.00261642
0.00258538
0.00255487
0.00252489
0.00249545
0.00246656
0.00243824
0.00241049
0.00238332
0.00235674
0.00233076
0.00230539
0.00372328
0.003671
0.00362012
0.00357064
0.00352249
0.00347564
0.00343004
0.00338562
0.00334233
0.0033001
0.00325889
0.00321863
0.00317926
0.00314074
0.003103
0.00306599
0.00302966
0.00299397
0.00295889
0.00292437
0.00289039
0.00285694
0.00282397
0.00279149
0.00275947
0.00272792
0.00269682
0.00266617
0.00263598
0.00260624
0.00257696
0.00254813
0.00251978
0.00249189
0.00246448
0.00243755
0.0024111
0.00238515
0.00235969
0.00233474
0.00372326
0.00367095
0.00362003
0.00357049
0.0035223
0.00347541
0.00342976
0.0033853
0.00334198
0.00329975
0.00325856
0.00321838
0.00317914
0.00314081
0.00310333
0.00306666
0.00303076
0.00299559
0.0029611
0.00292725
0.00289402
0.00286137
0.00282928
0.00279772
0.00276666
0.0027361
0.00270601
0.00267638
0.00264721
0.00261848
0.0025902
0.00256235
0.00253494
0.00250796
0.00248141
0.0024553
0.00242962
0.00240438
0.00237958
0.00235521
0.00372325
0.00367091
0.00361996
0.00357039
0.00352216
0.00347523
0.00342955
0.00338505
0.0033417
0.00329945
0.00325825
0.00321807
0.00317886
0.00314058
0.00310319
0.00306665
0.00303092
0.00299597
0.00296175
0.00292824
0.00289539
0.00286318
0.00283157
0.00280054
0.00277006
0.00274011
0.00271067
0.00268172
0.00265324
0.00262523
0.00259766
0.00257054
0.00254385
0.00251759
0.00249175
0.00246633
0.00244132
0.00241671
0.00239252
0.00236872
0.00372325
0.00367088
0.0036199
0.00357031
0.00352207
0.00347511
0.0034294
0.00338489
0.00334151
0.00329924
0.00325802
0.00321783
0.00317861
0.00314034
0.00310297
0.00306648
0.00303081
0.00299595
0.00296184
0.00292848
0.00289581
0.00286381
0.00283245
0.0028017
0.00277153
0.00274193
0.00271287
0.00268433
0.00265628
0.00262873
0.00260164
0.00257501
0.00254882
0.00252307
0.00249775
0.00247284
0.00244834
0.00242424
0.00240053
0.0023772
0.00372324
0.00367086
0.00361987
0.00357027
0.003522
0.00347504
0.00342932
0.00338479
0.0033414
0.00329912
0.0032579
0.00321769
0.00317847
0.0031402
0.00310284
0.00306635
0.00303071
0.00299587
0.00296181
0.0029285
0.00289591
0.00286401
0.00283276
0.00280215
0.00277215
0.00274273
0.00271387
0.00268556
0.00265776
0.00263048
0.00260368
0.00257735
0.00255149
0.00252607
0.00250109
0.00247653
0.00245238
0.00242864
0.00240529
0.00238231
0.00372324
0.00367085
0.00361985
0.00357024
0.00352198
0.00347501
0.00342929
0.00338476
0.00334137
0.00329909
0.00325787
0.00321767
0.00317845
0.00314018
0.00310282
0.00306633
0.0030307
0.00299587
0.00296184
0.00292855
0.00289599
0.00286413
0.00283293
0.00280239
0.00277246
0.00274313
0.00271437
0.00268618
0.00265851
0.00263137
0.00260474
0.00257859
0.00255291
0.00252769
0.00250292
0.00247858
0.00245466
0.00243115
0.00240804
0.0023853
0.00372324
0.00367085
0.00361985
0.00357024
0.00352198
0.00347501
0.0034293
0.00338478
0.0033414
0.00329913
0.00325792
0.00321772
0.00317851
0.00314025
0.0031029
0.00306642
0.0030308
0.00299598
0.00296195
0.00292868
0.00289613
0.00286429
0.00283311
0.00280259
0.0027727
0.00274341
0.0027147
0.00268656
0.00265897
0.0026319
0.00260535
0.00257929
0.00255372
0.00252861
0.00250396
0.00247974
0.00245596
0.00243259
0.00240962
0.00238703
0.00372324
0.00367085
0.00361985
0.00357025
0.00352199
0.00347504
0.00342934
0.00338483
0.00334147
0.00329921
0.00325801
0.00321783
0.00317864
0.00314038
0.00310304
0.00306658
0.00303096
0.00299615
0.00296213
0.00292886
0.00289632
0.00286449
0.00283333
0.00280282
0.00277294
0.00274367
0.00271498
0.00268686
0.0026593
0.00263227
0.00260575
0.00257974
0.00255422
0.00252917
0.00250457
0.00248043
0.00245671
0.00243342
0.00241052
0.00238802
0.00372324
0.00367085
0.00361986
0.00357026
0.00352202
0.00347508
0.00342939
0.0033849
0.00334155
0.00329931
0.00325812
0.00321795
0.00317876
0.00314052
0.00310319
0.00306673
0.00303112
0.00299632
0.00296231
0.00292904
0.00289651
0.00286468
0.00283352
0.00280302
0.00277315
0.00274388
0.0027152
0.0026871
0.00265954
0.00263253
0.00260603
0.00258004
0.00255453
0.00252951
0.00250494
0.00248082
0.00245714
0.00243388
0.00241102
0.00238855
0.00372324
0.00367085
0.00361987
0.00357028
0.00352204
0.00347511
0.00342943
0.00338494
0.00334161
0.00329937
0.00325819
0.00321803
0.00317885
0.00314061
0.00310328
0.00306683
0.00303122
0.00299643
0.00296242
0.00292916
0.00289663
0.0028648
0.00283364
0.00280314
0.00277327
0.00274401
0.00271533
0.00268723
0.00265968
0.00263267
0.00260617
0.00258018
0.00255469
0.00252967
0.00250511
0.002481
0.00245733
0.00243407
0.00241122
0.00238877
0.00372324
0.00367085
0.00361987
0.00357028
0.00352204
0.00347511
0.00342943
0.00338494
0.00334161
0.00329937
0.00325819
0.00321803
0.00317885
0.00314061
0.00310328
0.00306683
0.00303122
0.00299643
0.00296242
0.00292916
0.00289663
0.0028648
0.00283364
0.00280314
0.00277327
0.002744
0.00271533
0.00268722
0.00265967
0.00263266
0.00260616
0.00258017
0.00255467
0.00252965
0.00250509
0.00248097
0.00245729
0.00243403
0.00241117
0.0023887
0.00372324
0.00367085
0.00361986
0.00357026
0.00352202
0.00347508
0.00342939
0.0033849
0.00334155
0.00329931
0.00325812
0.00321795
0.00317876
0.00314052
0.00310319
0.00306673
0.00303112
0.00299632
0.0029623
0.00292904
0.00289651
0.00286468
0.00283352
0.00280302
0.00277314
0.00274387
0.00271519
0.00268709
0.00265953
0.00263251
0.002606
0.00258
0.00255449
0.00252945
0.00250487
0.00248074
0.00245703
0.00243375
0.00241086
0.00238836
0.00372324
0.00367085
0.00361985
0.00357025
0.00352199
0.00347504
0.00342934
0.00338483
0.00334147
0.00329921
0.00325801
0.00321783
0.00317864
0.00314038
0.00310304
0.00306658
0.00303096
0.00299615
0.00296213
0.00292886
0.00289632
0.00286448
0.00283332
0.00280281
0.00277293
0.00274365
0.00271496
0.00268684
0.00265927
0.00263223
0.00260571
0.00257969
0.00255415
0.00252908
0.00250446
0.00248029
0.00245654
0.0024332
0.00241025
0.0023877
0.00372324
0.00367085
0.00361985
0.00357024
0.00352198
0.00347501
0.0034293
0.00338478
0.0033414
0.00329913
0.00325792
0.00321772
0.00317851
0.00314025
0.0031029
0.00306642
0.00303079
0.00299598
0.00296195
0.00292867
0.00289613
0.00286428
0.00283311
0.00280258
0.00277269
0.00274339
0.00271468
0.00268653
0.00265893
0.00263185
0.00260529
0.00257921
0.00255362
0.00252849
0.0025038
0.00247955
0.00245571
0.00243228
0.00240924
0.00238657
0.00372324
0.00367085
0.00361985
0.00357024
0.00352198
0.00347501
0.00342929
0.00338476
0.00334137
0.00329909
0.00325787
0.00321767
0.00317845
0.00314017
0.00310281
0.00306633
0.0030307
0.00299587
0.00296183
0.00292855
0.00289598
0.00286412
0.00283292
0.00280237
0.00277244
0.0027431
0.00271434
0.00268614
0.00265847
0.00263131
0.00260466
0.00257849
0.00255278
0.00252753
0.00250272
0.00247832
0.00245434
0.00243075
0.00240754
0.00238469
0.00372324
0.00367086
0.00361987
0.00357027
0.003522
0.00347504
0.00342932
0.00338479
0.0033414
0.00329912
0.0032579
0.00321769
0.00317847
0.0031402
0.00310284
0.00306635
0.0030307
0.00299587
0.00296181
0.0029285
0.0028959
0.002864
0.00283275
0.00280214
0.00277213
0.0027427
0.00271384
0.00268551
0.0026577
0.0026304
0.00260358
0.00257723
0.00255133
0.00252587
0.00250083
0.0024762
0.00245197
0.00242812
0.00240465
0.00238153
0.00372325
0.00367088
0.0036199
0.00357031
0.00352207
0.00347511
0.0034294
0.00338489
0.00334151
0.00329924
0.00325802
0.00321783
0.00317861
0.00314034
0.00310297
0.00306647
0.00303081
0.00299594
0.00296184
0.00292847
0.0028958
0.0028638
0.00283243
0.00280168
0.00277151
0.0027419
0.00271283
0.00268427
0.00265621
0.00262863
0.00260152
0.00257486
0.00254863
0.00252283
0.00249743
0.00247244
0.00244783
0.00242359
0.00239972
0.00237621
0.00372325
0.00367091
0.00361996
0.00357039
0.00352216
0.00347523
0.00342955
0.00338505
0.0033417
0.00329945
0.00325825
0.00321807
0.00317885
0.00314057
0.00310318
0.00306665
0.00303092
0.00299597
0.00296175
0.00292823
0.00289538
0.00286317
0.00283156
0.00280052
0.00277003
0.00274007
0.00271062
0.00268165
0.00265315
0.00262512
0.00259752
0.00257036
0.00254362
0.0025173
0.00249137
0.00246584
0.00244069
0.00241592
0.00239152
0.00236747
0.00372326
0.00367095
0.00362003
0.00357049
0.0035223
0.00347541
0.00342976
0.0033853
0.00334198
0.00329975
0.00325856
0.00321838
0.00317914
0.0031408
0.00310333
0.00306666
0.00303076
0.00299558
0.00296109
0.00292724
0.00289401
0.00286136
0.00282926
0.00279769
0.00276663
0.00273605
0.00270595
0.0026763
0.00264711
0.00261835
0.00259003
0.00256213
0.00253466
0.0025076
0.00248095
0.00245471
0.00242886
0.00240341
0.00237835
0.00235367
0.00372328
0.003671
0.00362012
0.00357064
0.00352249
0.00347564
0.00343004
0.00338562
0.00334233
0.0033001
0.00325889
0.00321863
0.00317926
0.00314074
0.00310299
0.00306598
0.00302965
0.00299397
0.00295888
0.00292436
0.00289038
0.00285692
0.00282395
0.00279146
0.00275943
0.00272786
0.00269674
0.00266608
0.00263586
0.00260608
0.00257675
0.00254787
0.00251944
0.00249146
0.00246392
0.00243683
0.00241019
0.00238398
0.00235822
0.00233289
0.0037233
0.00367107
0.00362026
0.00357083
0.00352275
0.00347596
0.0034304
0.003386
0.00334268
0.00330036
0.00325896
0.00321842
0.00317865
0.00313959
0.00310119
0.00306338
0.00302614
0.00298941
0.00295318
0.00291742
0.00288213
0.00284729
0.00281291
0.00277897
0.00274549
0.00271247
0.00267992
0.00264785
0.00261627
0.0025852
0.00255463
0.00252458
0.00249505
0.00246605
0.00243758
0.00240965
0.00238225
0.00235538
0.00232904
0.00230324
0.00372333
0.00367117
0.00362044
0.0035711
0.00352309
0.00347635
0.00343078
0.00338627
0.0033427
0.00329997
0.00325797
0.00321662
0.00317583
0.00313554
0.00309571
0.00305631
0.00301731
0.00297871
0.00294051
0.00290271
0.00286534
0.00282841
0.00279195
0.00275597
0.0027205
0.00268558
0.00265122
0.00261746
0.00258431
0.00255179
0.00251992
0.00248872
0.00245819
0.00242834
0.00239917
0.00237069
0.0023429
0.00231579
0.00228938
0.00226364
0.00372337
0.00367132
0.00362071
0.00357146
0.00352348
0.00347665
0.0034308
0.00338574
0.0033413
0.00329735
0.00325379
0.00321053
0.00316753
0.00312478
0.00308227
0.00304001
0.00299805
0.00295642
0.00291517
0.00287436
0.00283402
0.00279423
0.00275504
0.00271649
0.00267865
0.00264156
0.00260526
0.0025698
0.00253522
0.00250153
0.00246875
0.00243689
0.00240596
0.00237596
0.0023469
0.00231878
0.0022916
0.00226537
0.00224007
0.00221569
0.00372344
0.00367152
0.00362107
0.00357185
0.00352363
0.00347614
0.0034291
0.00338225
0.00333542
0.00328852
0.00324152
0.00319443
0.00314729
0.00310017
0.00305316
0.00300637
0.00295991
0.00291388
0.00286839
0.00282355
0.00277945
0.00273622
0.00269393
0.00265269
0.00261257
0.00257364
0.00253598
0.00249962
0.00246461
0.00243095
0.00239864
0.0023677
0.00233811
0.00230989
0.00228305
0.00225762
0.00223359
0.00221092
0.00218959
0.00216959
0.00372355
0.0036719
0.00362147
0.00357168
0.00352202
0.00347205
0.00342142
0.00336998
0.00331773
0.00326477
0.00321123
0.00315728
0.00310315
0.00304904
0.00299519
0.00294183
0.00288918
0.00283738
0.00278664
0.00273717
0.00268914
0.00264272
0.00259805
0.00255526
0.00251448
0.00247581
0.00243932
0.00240503
0.00237294
0.00234303
0.00231529
0.00228974
0.00226643
0.00224543
0.00222681
0.00221057
0.00219666
0.00218501
0.00217563
0.00216859
0.00372382
0.00367222
0.00362071
0.00356797
0.00351321
0.0034561
0.00339667
0.00333519
0.00327212
0.00320788
0.00314283
0.00307745
0.00301226
0.00294775
0.00288436
0.00282253
0.00276259
0.00270454
0.00264911
0.00259664
0.00254737
0.00250154
0.00245936
0.00242105
0.0023868
0.0023567
0.00233082
0.00230912
0.00229156
0.00227812
0.00226887
0.00226405
0.00226389
0.00226836
0.00227767
0.00229159
0.00230977
0.00233214
0.00235887
0.0023903
0.00372401
0.00367096
0.00361354
0.00355013
0.0034806
0.00340569
0.00332658
0.00324455
0.00316092
0.0030765
0.00299186
0.00290878
0.00282839
0.00275161
0.00267925
0.00261201
0.00255058
0.00249587
0.00244824
0.00240819
0.00237613
0.00235247
0.0023375
0.00233148
0.00233519
0.00234915
0.00237322
0.0024064
0.00244776
0.00249706
0.00255446
0.0026211
0.00269479
0.00277348
0.00285678
0.00294524
0.0030396
0.00314028
0.00324728
0.00336085
0.00372504
0.00366277
0.00358563
0.00349437
0.00339186
0.00328206
0.00316877
0.00305531
0.00294459
0.00283949
0.00274276
0.00265643
0.00258261
0.00252357
0.00248171
0.00245862
0.0024567
0.00247647
0.00251688
0.00257698
0.00265561
0.00275122
0.00286253
0.00298929
0.00313218
0.0032927
0.00347715
0.00366631
0.00385426
0.00404001
0.0042238
0.0044061
0.00458719
0.0047671
0.00494562
0.00512249
0.00529749
0.00547039
0.00564102
0.00580898
0.00376626
0.00380934
0.00385489
0.00389299
0.00391175
0.00390552
0.00387696
0.00383405
0.00378682
0.0037453
0.0037183
0.00371504
0.00373972
0.00379815
0.00389796
0.00404688
0.00426341
0.0045291
0.00481718
0.00512304
0.00543971
0.00573949
0.00601933
0.00628155
0.00652898
0.00676356
0.00698702
0.00719982
0.00740261
0.00759551
0.00777837
0.007951
0.00811322
0.00826489
0.00840604
0.00853658
0.00865649
0.00876592
0.00886509
0.00895382
0.00541281
0.00844037
0.0107735
0.012308
0.0131509
0.0134798
0.0134616
0.0132257
0.0128626
0.0124314
0.0119688
0.0114967
0.0110313
0.0105786
0.0101409
0.00972088
0.00932286
0.00895149
0.00860529
0.00828151
0.00798
0.00770224
0.00745056
0.00722639
0.00703016
0.00686177
0.00672062
0.00660506
0.00651255
0.00643994
0.00638396
0.00634146
0.0063096
0.00628583
0.00626794
0.00625434
0.00624361
0.00623448
0.0062258
0.00621661
0.00660915
0.00889532
0.0132801
0.0183118
0.0225552
0.025586
0.0276757
0.0292018
0.0303982
0.0313676
0.0321575
0.0328012
0.0333256
0.0337529
0.0341036
0.034397
0.0346516
0.0348839
0.0351079
0.0353344
0.0355719
0.0358275
0.0361047
0.0364027
0.0367164
0.0370386
0.037361
0.0376752
0.037974
0.0382507
0.0385
0.0387178
0.0389011
0.0390477
0.0391566
0.0392286
0.0392629
0.03926
0.0392216
0.0391503
0.0390476
0.0389141
0.0387518
0.0385638
0.038353
0.0381221
0.0378717
0.0376027
0.0373178
0.0370198
0.0367109
0.0363931
0.0360687
0.0357384
0.0354027
0.0350626
0.0347203
0.0343795
0.0340415
0.0337065
0.0333744
0.0330458
0.0327214
0.0324015
0.0320867
0.0317772
0.0314732
0.0311748
0.0308823
0.0305957
0.0303152
0.0300406
0.0297721
0.0295093
0.0292523
0.029001
0.0287552
0.0285147
0.0282794
0.0280491
0.0278235
0.0276025
0.0273858
0.0271732
0.0269645
0.0267595
0.0265579
0.0263596
0.0261643
0.0259719
0.025782
0.0255946
0.0254094
0.0252264
0.0250452
0.0248659
0.0246883
0.0245123
0.0243378
0.0241646
0.0239928
0.0238221
0.0236526
0.0234842
0.0233166
0.02315
0.0229842
0.0228191
0.0226547
0.0224909
0.0223276
0.0221648
0.0220024
0.0218403
0.0216783
0.0215163
0.0213542
0.021192
0.0210296
0.0208668
0.0207037
0.0205405
0.0203771
0.0202141
0.0200518
0.0198901
0.0197294
0.01957
0.0194118
0.0192549
0.019099
0.0189443
0.0187907
0.0186383
0.0184869
0.0183367
0.0181874
0.0180391
0.0178917
0.0177452
0.0175994
0.0174544
0.0173101
0.0171665
0.0170234
0.0168809
0.0167389
0.0165976
0.0164568
0.0163165
0.0161769
0.0160378
0.0158993
0.0157615
0.0156243
0.0154877
0.0153517
0.0152164
0.0150817
0.0149478
0.0148145
0.0146819
0.0145501
0.0144189
0.0142886
0.014159
0.0140301
0.0139021
0.0137748
0.0136484
0.0135228
0.0133981
0.0132742
0.0131511
0.013029
0.0129077
0.0127874
0.0126679
0.0125494
0.0124318
0.0123151
0.0121994
0.0120846
0.0119708
0.0118579
0.0117461
0.0116352
0.0115253
0.0114163
0.0113084
0.0112015
0.0110955
0.0109905
0.0108866
0.0107836
0.0106816
0.0105806
0.0104806
0.0103816
0.0102835
0.0101865
0.0100904
0.00999531
0.00990118
0.00980801
0.00971581
0.00962455
0.00953425
0.00944488
0.00935645
0.00926895
0.00918238
0.00909672
0.00901196
0.00892811
0.00884515
0.00876307
0.00868188
0.00860155
0.00852209
0.00844348
0.00836571
0.00828879
0.00821269
0.00813742
0.00806297
0.00798931
0.00791646
0.0078444
0.00777312
0.00770261
0.00763287
0.00756389
0.00749565
0.00742816
0.0073614
0.00729537
0.00723005
0.00716545
0.00710155
0.00703834
0.00697582
0.00691397
0.0068528
0.00679229
0.00673244
0.00667323
0.00661467
0.00655674
0.00649943
0.00644274
0.00638666
0.00633119
0.00627631
0.00622202
0.00616832
0.00611519
0.00606263
0.00601063
0.00595918
0.00590828
0.00585793
0.00580811
0.00575882
0.00571005
0.0056618
0.00561405
0.00556682
0.00552008
0.00547384
0.00542808
0.0053828
0.00533801
0.00529368
0.00524982
0.00520642
0.00516347
0.00512098
0.00507893
0.00503732
0.00499615
0.00495541
0.0049151
0.0048752
0.00483572
0.00479666
0.004758
0.00471974
0.00468188
0.00464442
0.00460734
0.00457064
0.00453433
0.00449838
0.00446282
0.00442761
0.00439279
0.00435816
0.0043254
0.00427829
0.00907145
0.00962778
0.0107389
0.0125395
0.0149864
0.0177883
0.0205538
0.0229949
0.025008
0.0266268
0.0279343
0.0290025
0.0298786
0.0305952
0.0311808
0.0316625
0.0320642
0.0324072
0.0327089
0.0329839
0.0332445
0.0335016
0.0337628
0.0340324
0.0343104
0.034594
0.0348784
0.0351575
0.0354252
0.0356755
0.0359034
0.0361046
0.0362758
0.0364145
0.0365193
0.0365898
0.0366257
0.0366272
0.0365953
0.0365318
0.0364385
0.0363165
0.0361675
0.0359938
0.0357981
0.0355833
0.0353504
0.0351007
0.0348362
0.0345593
0.0342722
0.033977
0.0336757
0.0333697
0.0330595
0.032746
0.0324311
0.0321176
0.0318066
0.0314984
0.0311919
0.0308885
0.0305894
0.0302952
0.0300064
0.0297232
0.0294458
0.0291745
0.0289094
0.0286507
0.0283985
0.0281525
0.0279127
0.027679
0.0274512
0.0272294
0.0270133
0.0268026
0.0265973
0.0263969
0.0262013
0.0260103
0.0258236
0.0256409
0.0254621
0.0252869
0.025115
0.0249462
0.0247802
0.0246168
0.0244559
0.024297
0.0241402
0.0239851
0.0238317
0.0236798
0.0235293
0.0233799
0.0232317
0.0230845
0.0229382
0.0227927
0.0226479
0.0225037
0.0223601
0.0222169
0.0220742
0.0219318
0.0217897
0.0216479
0.0215064
0.0213651
0.0212239
0.0210827
0.0209415
0.0208001
0.0206585
0.0205165
0.0203741
0.020231
0.0200873
0.0199428
0.0197975
0.0196516
0.0195051
0.0193581
0.0192111
0.0190644
0.018918
0.018772
0.0186267
0.0184824
0.0183388
0.018196
0.0180538
0.0179124
0.0177717
0.0176317
0.0174923
0.0173534
0.0172151
0.0170774
0.0169401
0.0168033
0.0166669
0.0165308
0.0163951
0.0162598
0.0161249
0.0159903
0.0158562
0.0157225
0.0155893
0.0154565
0.0153241
0.0151923
0.0150609
0.0149301
0.0147998
0.01467
0.0145409
0.0144123
0.0142843
0.014157
0.0140304
0.0139044
0.0137791
0.0136545
0.0135306
0.0134075
0.0132851
0.0131635
0.0130427
0.0129227
0.0128035
0.0126852
0.0125677
0.0124511
0.0123353
0.0122204
0.0121064
0.0119933
0.0118811
0.0117699
0.0116596
0.0115502
0.0114417
0.0113342
0.0112276
0.011122
0.0110174
0.0109137
0.010811
0.0107092
0.0106084
0.0105086
0.0104097
0.0103118
0.0102149
0.0101189
0.0100239
0.00992978
0.00983665
0.00974446
0.00965322
0.00956291
0.00947353
0.00938507
0.00929754
0.00921091
0.0091252
0.00904038
0.00895645
0.00887342
0.00879126
0.00870997
0.00862955
0.00854998
0.00847126
0.00839339
0.00831635
0.00824013
0.00816474
0.00809015
0.00801637
0.00794338
0.00787118
0.00779976
0.00772911
0.00765922
0.00759008
0.0075217
0.00745405
0.00738714
0.00732094
0.00725547
0.0071907
0.00712663
0.00706326
0.00700057
0.00693856
0.00687721
0.00681653
0.0067565
0.00669713
0.00663839
0.00658028
0.00652279
0.00646593
0.00640967
0.00635402
0.00629896
0.0062445
0.00619061
0.0061373
0.00608456
0.00603238
0.00598075
0.00592967
0.00587914
0.00582913
0.00577966
0.00573071
0.00568227
0.00563435
0.00558693
0.00554001
0.00549358
0.00544763
0.00540217
0.00535719
0.00531267
0.00526862
0.00522503
0.0051819
0.00513921
0.00509697
0.00505517
0.0050138
0.00497287
0.00493235
0.00489226
0.00485259
0.00481333
0.00477447
0.00473602
0.00469796
0.0046603
0.00462302
0.00458613
0.00454961
0.00451348
0.00447771
0.00444231
0.00440727
0.00437258
0.00433828
0.00430415
0.0042719
0.0042254
0.00581488
0.00600805
0.00629437
0.0067705
0.00755531
0.00875079
0.0103982
0.012439
0.0147207
0.0170467
0.01924
0.0211886
0.0228534
0.024249
0.0254129
0.0263845
0.0271962
0.0278778
0.0284559
0.0289533
0.0293902
0.0297835
0.0301471
0.0304911
0.0308223
0.031144
0.0314563
0.0317575
0.0320441
0.0323125
0.0325589
0.0327799
0.0329725
0.0331346
0.0332644
0.0333615
0.0334253
0.0334562
0.0334548
0.0334223
0.0333605
0.0332708
0.0331549
0.0330147
0.0328528
0.0326715
0.0324728
0.032258
0.0320289
0.0317876
0.0315363
0.0312768
0.0310112
0.030741
0.0304673
0.0301908
0.0299127
0.0296318
0.0293522
0.0290743
0.0287979
0.028525
0.0282565
0.0279929
0.0277344
0.0274815
0.0272347
0.0269944
0.0267606
0.0265335
0.0263128
0.0260985
0.0258906
0.0256889
0.0254934
0.0253039
0.0251202
0.024942
0.0247691
0.0246011
0.0244378
0.0242791
0.0241246
0.0239742
0.0238274
0.023684
0.0235438
0.0234064
0.0232717
0.0231393
0.023009
0.0228806
0.0227539
0.0226287
0.0225048
0.022382
0.0222602
0.0221392
0.022019
0.0218993
0.0217802
0.0216614
0.0215429
0.0214245
0.0213062
0.0211878
0.0210694
0.020951
0.0208324
0.0207137
0.0205948
0.0204758
0.0203565
0.0202369
0.0201169
0.0199966
0.0198758
0.0197544
0.0196325
0.0195098
0.0193863
0.0192617
0.0191361
0.0190093
0.0188814
0.0187522
0.0186221
0.0184912
0.0183592
0.0182267
0.0180942
0.0179614
0.0178287
0.0176961
0.0175638
0.0174321
0.0173007
0.0171695
0.0170387
0.0169082
0.0167782
0.0166486
0.0165193
0.0163902
0.0162613
0.0161325
0.016004
0.0158755
0.0157473
0.0156193
0.0154915
0.0153639
0.0152365
0.0151095
0.0149827
0.0148563
0.0147303
0.0146046
0.0144793
0.0143544
0.01423
0.0141061
0.0139826
0.0138597
0.0137374
0.0136156
0.0134944
0.0133738
0.0132539
0.0131346
0.013016
0.0128982
0.012781
0.0126645
0.0125489
0.012434
0.0123198
0.0122065
0.012094
0.0119823
0.0118715
0.0117615
0.0116523
0.0115441
0.0114367
0.0113302
0.0112246
0.01112
0.0110162
0.0109133
0.0108114
0.0107104
0.0106103
0.0105111
0.0104129
0.0103156
0.0102192
0.0101237
0.0100292
0.00993559
0.00984291
0.00975116
0.00966032
0.00957039
0.00948137
0.00939326
0.00930605
0.00921974
0.00913431
0.00904977
0.00896611
0.00888332
0.00880139
0.00872033
0.00864012
0.00856075
0.00848222
0.00840452
0.00832765
0.00825159
0.00817634
0.00810189
0.00802824
0.00795538
0.00788329
0.00781197
0.00774142
0.00767162
0.00760257
0.00753426
0.00746668
0.00739983
0.0073337
0.00726827
0.00720355
0.00713952
0.00707618
0.00701352
0.00695153
0.00689021
0.00682954
0.00676953
0.00671015
0.00665141
0.0065933
0.00653581
0.00647894
0.00642267
0.006367
0.00631192
0.00625743
0.00620352
0.00615018
0.0060974
0.00604519
0.00599352
0.0059424
0.00589182
0.00584177
0.00579225
0.00574325
0.00569476
0.00564678
0.0055993
0.00555231
0.00550582
0.00545981
0.00541428
0.00536922
0.00532463
0.0052805
0.00523683
0.00519362
0.00515085
0.00510852
0.00506663
0.00502517
0.00498414
0.00494353
0.00490334
0.00486357
0.0048242
0.00478524
0.00474668
0.00470851
0.00467074
0.00463335
0.00459635
0.00455972
0.00452347
0.00448759
0.00445207
0.00441691
0.00438211
0.00434766
0.00431356
0.00427983
0.00424626
0.00421458
0.00416875
0.00336901
0.00346496
0.00357114
0.00370287
0.00388885
0.00417166
0.00460928
0.00526975
0.00621764
0.00749199
0.00908293
0.0109208
0.0128879
0.0148506
0.0166946
0.0183494
0.0197909
0.0210284
0.0220878
0.0229976
0.0237837
0.0244687
0.0250728
0.0256136
0.0261052
0.0265586
0.0269801
0.0273735
0.0277403
0.0280803
0.0283927
0.0286761
0.0289288
0.0291495
0.0293374
0.029492
0.0296129
0.0297005
0.0297554
0.0297788
0.0297723
0.0297375
0.0296762
0.0295902
0.0294817
0.0293532
0.0292066
0.0290437
0.0288664
0.0286764
0.0284758
0.0282664
0.0280502
0.0278289
0.0276037
0.0273756
0.0271453
0.0269104
0.0266712
0.0264307
0.0261905
0.0259544
0.0257221
0.0254937
0.0252697
0.0250514
0.0248395
0.0246342
0.0244354
0.0242429
0.0240568
0.0238772
0.023704
0.0235372
0.0233766
0.023222
0.0230732
0.0229297
0.0227913
0.0226579
0.0225291
0.0224048
0.0222847
0.0221684
0.0220556
0.0219459
0.0218393
0.0217352
0.0216336
0.021534
0.0214363
0.0213401
0.0212452
0.0211515
0.0210588
0.0209668
0.0208755
0.0207846
0.0206941
0.0206037
0.0205135
0.0204231
0.0203325
0.0202415
0.0201501
0.0200581
0.0199656
0.0198726
0.019779
0.0196847
0.0195899
0.0194944
0.0193981
0.0193011
0.0192032
0.0191046
0.0190053
0.0189051
0.018804
0.018702
0.018599
0.0184948
0.0183894
0.0182826
0.0181744
0.0180646
0.0179534
0.0178407
0.0177263
0.0176105
0.0174936
0.0173753
0.0172558
0.0171357
0.0170151
0.0168939
0.0167724
0.0166507
0.0165292
0.0164079
0.0162871
0.0161667
0.0160464
0.015926
0.0158056
0.0156852
0.0155646
0.015444
0.0153233
0.0152026
0.0150819
0.0149612
0.0148406
0.0147201
0.0145997
0.0144794
0.0143594
0.0142395
0.0141199
0.0140006
0.0138816
0.013763
0.0136447
0.0135269
0.0134095
0.0132925
0.0131761
0.0130601
0.0129447
0.0128299
0.0127157
0.012602
0.0124891
0.0123767
0.0122651
0.0121541
0.0120439
0.0119344
0.0118257
0.0117177
0.0116105
0.0115041
0.0113985
0.0112937
0.0111897
0.0110866
0.0109843
0.0108829
0.0107824
0.0106827
0.0105838
0.0104859
0.0103888
0.0102926
0.0101973
0.0101029
0.0100094
0.00991673
0.00982497
0.0097341
0.00964411
0.00955501
0.00946678
0.00937943
0.00929295
0.00920734
0.00912259
0.00903871
0.00895568
0.0088735
0.00879217
0.00871167
0.00863201
0.00855317
0.00847516
0.00839795
0.00832156
0.00824596
0.00817116
0.00809715
0.00802391
0.00795145
0.00787975
0.00780881
0.00773862
0.00766917
0.00760046
0.00753248
0.00746522
0.00739867
0.00733283
0.00726769
0.00720324
0.00713947
0.00707639
0.00701397
0.00695222
0.00689112
0.00683067
0.00677086
0.00671169
0.00665314
0.00659521