/*--------------------------------*- C++ -*----------------------------------*\
| =========                 |                                                 |
| \\      /  F ield         | OpenFOAM: The Open Source CFD Toolbox           |
|  \\    /   O peration     | Version:  2306                                  |
|   \\  /    A nd           | Website:  www.openfoam.com                      |
|    \\/     M anipulation  |                                                 |
\*---------------------------------------------------------------------------*/
FoamFile
{
    version     2.0;
    format      ascii;
    arch        "LSB;label=32;scalar=64";
    class       volScalarField;
    location    "2000";
    object      nut;
}
// * * * * * * * * * * * * * * * * * * * * * * * * * * * * * * * * * * * * * //

dimensions      [0 2 -1 0 0 0 0];

internalField   nonuniform List<scalar> 
25600
(
9.41057e-07
1.38898e-06
1.70585e-06
1.90292e-06
2.00774e-06
2.04801e-06
2.04579e-06
2.01692e-06
1.97215e-06
1.91842e-06
1.86007e-06
1.79979e-06
1.65904e-06
1.51775e-06
1.39521e-06
1.28912e-06
1.19808e-06
1.11941e-06
1.05055e-06
9.901e-07
9.37535e-07
8.92879e-07
8.55443e-07
8.24651e-07
7.99928e-07
7.87911e-07
7.79872e-07
7.73858e-07
7.69742e-07
7.67325e-07
7.66358e-07
7.66591e-07
7.67797e-07
7.71048e-07
7.80212e-07
7.90905e-07
8.02905e-07
8.15483e-07
8.32955e-07
8.40139e-07
8.16569e-06
4.02232e-06
2.90811e-06
2.41348e-06
2.14728e-06
1.98716e-06
1.88281e-06
1.81081e-06
1.75972e-06
1.7241e-06
1.70169e-06
1.69237e-06
1.69598e-06
1.71382e-06
1.74893e-06
1.80372e-06
1.88311e-06
1.90454e-06
1.89297e-06
1.89393e-06
1.9194e-06
1.97952e-06
2.03709e-06
2.09358e-06
2.1504e-06
2.20874e-06
2.26943e-06
2.33268e-06
2.39808e-06
2.46516e-06
2.5334e-06
2.60229e-06
2.67139e-06
2.74037e-06
2.80907e-06
2.87736e-06
2.94462e-06
3.00917e-06
3.08195e-06
3.12122e-06
2.25871e-05
1.7589e-05
1.33179e-05
1.04412e-05
8.52247e-06
7.19679e-06
6.2445e-06
5.53615e-06
4.99328e-06
4.56712e-06
4.22671e-06
3.95134e-06
3.72748e-06
3.54414e-06
3.38557e-06
3.24242e-06
3.11741e-06
3.01629e-06
2.93657e-06
2.87324e-06
2.82376e-06
2.78967e-06
2.77273e-06
2.77338e-06
2.79396e-06
2.83788e-06
2.90485e-06
2.98192e-06
3.04682e-06
3.11126e-06
3.17815e-06
3.2478e-06
3.32055e-06
3.39631e-06
3.47462e-06
3.5552e-06
3.639e-06
3.72581e-06
3.82011e-06
3.91594e-06
2.34718e-05
2.30283e-05
2.18591e-05
2.02391e-05
1.84953e-05
1.68264e-05
1.532e-05
1.39988e-05
1.28548e-05
1.18677e-05
1.10139e-05
1.02733e-05
9.62815e-06
9.06049e-06
8.54433e-06
8.0614e-06
7.60748e-06
7.18733e-06
6.80408e-06
6.45717e-06
6.14404e-06
5.86242e-06
5.61052e-06
5.39053e-06
5.18939e-06
4.97582e-06
4.76353e-06
4.57314e-06
4.41383e-06
4.28684e-06
4.19023e-06
4.12201e-06
4.07758e-06
4.05309e-06
4.0505e-06
4.06842e-06
4.10264e-06
4.14957e-06
4.20536e-06
4.27218e-06
2.34199e-05
2.33648e-05
2.31905e-05
2.28282e-05
2.22725e-05
2.1561e-05
2.07474e-05
1.9883e-05
1.9008e-05
1.81503e-05
1.7327e-05
1.65478e-05
1.58171e-05
1.51359e-05
1.45007e-05
1.39054e-05
1.33442e-05
1.28122e-05
1.23087e-05
1.18329e-05
1.13842e-05
1.09617e-05
1.05632e-05
1.01906e-05
9.83135e-06
9.45535e-06
9.0702e-06
8.69256e-06
8.33373e-06
7.99987e-06
7.69392e-06
7.41697e-06
7.16929e-06
6.94855e-06
6.73174e-06
6.51325e-06
6.30457e-06
6.11725e-06
5.95455e-06
5.82762e-06
2.34109e-05
2.33612e-05
2.33021e-05
2.32094e-05
2.30595e-05
2.28372e-05
2.25388e-05
2.217e-05
2.17429e-05
2.12717e-05
2.07706e-05
2.02519e-05
1.97263e-05
1.92019e-05
1.86852e-05
1.81801e-05
1.7689e-05
1.72126e-05
1.67512e-05
1.63049e-05
1.58741e-05
1.5459e-05
1.50594e-05
1.46754e-05
1.43063e-05
1.39464e-05
1.35908e-05
1.32377e-05
1.28877e-05
1.25427e-05
1.22049e-05
1.18766e-05
1.15601e-05
1.1256e-05
1.09457e-05
1.06235e-05
1.02988e-05
9.98387e-06
9.6875e-06
9.41935e-06
2.34101e-05
2.33569e-05
2.33047e-05
2.32493e-05
2.31838e-05
2.30996e-05
2.29889e-05
2.28459e-05
2.26681e-05
2.24555e-05
2.22107e-05
2.19374e-05
2.16403e-05
2.13245e-05
2.09945e-05
2.0655e-05
2.03098e-05
1.9962e-05
1.9614e-05
1.92677e-05
1.89248e-05
1.85867e-05
1.82543e-05
1.79285e-05
1.761e-05
1.72988e-05
1.69942e-05
1.66948e-05
1.63995e-05
1.61076e-05
1.58189e-05
1.55334e-05
1.52516e-05
1.49746e-05
1.4701e-05
1.44282e-05
1.41551e-05
1.38828e-05
1.3615e-05
1.33532e-05
2.34099e-05
2.33559e-05
2.3303e-05
2.32507e-05
2.31979e-05
2.31422e-05
2.30804e-05
2.30091e-05
2.29248e-05
2.28252e-05
2.27084e-05
2.25736e-05
2.24211e-05
2.22517e-05
2.20666e-05
2.18677e-05
2.1657e-05
2.14363e-05
2.12077e-05
2.09729e-05
2.07336e-05
2.04913e-05
2.02474e-05
2.0003e-05
1.97592e-05
1.95167e-05
1.92763e-05
1.90381e-05
1.88022e-05
1.85684e-05
1.83365e-05
1.81065e-05
1.78783e-05
1.76521e-05
1.74281e-05
1.72063e-05
1.69866e-05
1.67688e-05
1.65541e-05
1.63429e-05
2.34098e-05
2.33554e-05
2.33021e-05
2.32497e-05
2.31981e-05
2.31468e-05
2.30951e-05
2.30415e-05
2.29848e-05
2.29232e-05
2.28553e-05
2.27797e-05
2.26954e-05
2.26016e-05
2.24982e-05
2.23849e-05
2.22621e-05
2.21303e-05
2.19903e-05
2.18427e-05
2.16884e-05
2.15285e-05
2.13637e-05
2.11951e-05
2.10233e-05
2.08492e-05
2.06736e-05
2.04969e-05
2.03196e-05
2.01421e-05
1.99647e-05
1.97875e-05
1.96107e-05
1.94344e-05
1.92589e-05
1.90845e-05
1.89115e-05
1.87402e-05
1.85714e-05
1.84056e-05
2.34098e-05
2.33552e-05
2.33016e-05
2.32489e-05
2.31972e-05
2.31464e-05
2.30962e-05
2.30463e-05
2.29962e-05
2.29453e-05
2.28928e-05
2.2838e-05
2.278e-05
2.27183e-05
2.2652e-05
2.25809e-05
2.25044e-05
2.24224e-05
2.23348e-05
2.22418e-05
2.21434e-05
2.204e-05
2.19319e-05
2.18195e-05
2.17032e-05
2.15836e-05
2.1461e-05
2.13358e-05
2.12086e-05
2.10796e-05
2.09492e-05
2.08177e-05
2.06853e-05
2.05524e-05
2.04191e-05
2.02857e-05
2.01527e-05
2.00205e-05
1.98895e-05
1.97604e-05
2.34097e-05
2.3355e-05
2.33012e-05
2.32484e-05
2.31966e-05
2.31457e-05
2.30956e-05
2.30462e-05
2.29975e-05
2.29491e-05
2.29008e-05
2.28523e-05
2.28032e-05
2.27531e-05
2.27015e-05
2.2648e-05
2.25924e-05
2.25341e-05
2.24731e-05
2.2409e-05
2.23418e-05
2.22714e-05
2.21978e-05
2.2121e-05
2.20411e-05
2.19583e-05
2.18729e-05
2.17849e-05
2.16946e-05
2.16022e-05
2.15079e-05
2.1412e-05
2.13147e-05
2.12162e-05
2.11167e-05
2.10165e-05
2.09158e-05
2.0815e-05
2.07146e-05
2.06149e-05
2.34097e-05
2.33549e-05
2.3301e-05
2.32482e-05
2.31962e-05
2.31452e-05
2.30951e-05
2.30459e-05
2.29974e-05
2.29495e-05
2.29023e-05
2.28556e-05
2.28091e-05
2.27628e-05
2.27164e-05
2.26697e-05
2.26223e-05
2.25742e-05
2.25251e-05
2.24747e-05
2.24228e-05
2.23694e-05
2.23143e-05
2.22574e-05
2.21986e-05
2.2138e-05
2.20755e-05
2.20112e-05
2.19451e-05
2.18773e-05
2.18079e-05
2.1737e-05
2.16647e-05
2.15912e-05
2.15166e-05
2.14411e-05
2.13648e-05
2.1288e-05
2.1211e-05
2.11339e-05
2.34097e-05
2.33549e-05
2.33011e-05
2.32483e-05
2.31964e-05
2.31455e-05
2.30955e-05
2.30463e-05
2.2998e-05
2.29504e-05
2.29036e-05
2.28574e-05
2.28119e-05
2.27668e-05
2.27222e-05
2.26779e-05
2.26338e-05
2.25897e-05
2.25455e-05
2.2501e-05
2.24561e-05
2.24108e-05
2.23647e-05
2.23179e-05
2.22703e-05
2.22217e-05
2.21721e-05
2.21214e-05
2.20697e-05
2.2017e-05
2.19631e-05
2.19082e-05
2.18524e-05
2.17955e-05
2.17378e-05
2.16793e-05
2.16201e-05
2.15603e-05
2.15e-05
2.14396e-05
2.34098e-05
2.33553e-05
2.33018e-05
2.32493e-05
2.31978e-05
2.31473e-05
2.30976e-05
2.30488e-05
2.30008e-05
2.29536e-05
2.29071e-05
2.28614e-05
2.28164e-05
2.27719e-05
2.27281e-05
2.26848e-05
2.2642e-05
2.25996e-05
2.25574e-05
2.25155e-05
2.24737e-05
2.24319e-05
2.23901e-05
2.23481e-05
2.23059e-05
2.22634e-05
2.22206e-05
2.21773e-05
2.21335e-05
2.20892e-05
2.20443e-05
2.19989e-05
2.1953e-05
2.19064e-05
2.18593e-05
2.18117e-05
2.17636e-05
2.1715e-05
2.16661e-05
2.1617e-05
2.34103e-05
2.33566e-05
2.33039e-05
2.32523e-05
2.32015e-05
2.31517e-05
2.31027e-05
2.30546e-05
2.30073e-05
2.29607e-05
2.29149e-05
2.28697e-05
2.28252e-05
2.27814e-05
2.27382e-05
2.26956e-05
2.26535e-05
2.26119e-05
2.25708e-05
2.253e-05
2.24896e-05
2.24495e-05
2.24096e-05
2.23699e-05
2.23303e-05
2.22908e-05
2.22512e-05
2.22116e-05
2.21719e-05
2.21321e-05
2.20921e-05
2.20519e-05
2.20115e-05
2.19709e-05
2.193e-05
2.18889e-05
2.18475e-05
2.18059e-05
2.17641e-05
2.17221e-05
2.34111e-05
2.33591e-05
2.33079e-05
2.32576e-05
2.32082e-05
2.31597e-05
2.31119e-05
2.30649e-05
2.30186e-05
2.2973e-05
2.29281e-05
2.28837e-05
2.28401e-05
2.2797e-05
2.27544e-05
2.27125e-05
2.2671e-05
2.26301e-05
2.25896e-05
2.25495e-05
2.25099e-05
2.24706e-05
2.24317e-05
2.2393e-05
2.23546e-05
2.23164e-05
2.22784e-05
2.22406e-05
2.22029e-05
2.21653e-05
2.21277e-05
2.20902e-05
2.20527e-05
2.20152e-05
2.19777e-05
2.19401e-05
2.19025e-05
2.18649e-05
2.18273e-05
2.17895e-05
2.34123e-05
2.33625e-05
2.33135e-05
2.32653e-05
2.32178e-05
2.3171e-05
2.31248e-05
2.30793e-05
2.30344e-05
2.29901e-05
2.29463e-05
2.29031e-05
2.28604e-05
2.28182e-05
2.27765e-05
2.27352e-05
2.26944e-05
2.26541e-05
2.26142e-05
2.25747e-05
2.25355e-05
2.24967e-05
2.24583e-05
2.24202e-05
2.23824e-05
2.23448e-05
2.23075e-05
2.22705e-05
2.22337e-05
2.2197e-05
2.21606e-05
2.21243e-05
2.20882e-05
2.20522e-05
2.20163e-05
2.19805e-05
2.19449e-05
2.19093e-05
2.18738e-05
2.18383e-05
2.34137e-05
2.33666e-05
2.33201e-05
2.32742e-05
2.32289e-05
2.31841e-05
2.31398e-05
2.3096e-05
2.30527e-05
2.30098e-05
2.29673e-05
2.29252e-05
2.28835e-05
2.28423e-05
2.28014e-05
2.27609e-05
2.27208e-05
2.2681e-05
2.26416e-05
2.26026e-05
2.25638e-05
2.25254e-05
2.24873e-05
2.24495e-05
2.2412e-05
2.23748e-05
2.23378e-05
2.2301e-05
2.22646e-05
2.22283e-05
2.21923e-05
2.21565e-05
2.21209e-05
2.20855e-05
2.20503e-05
2.20153e-05
2.19805e-05
2.19458e-05
2.19113e-05
2.18769e-05
2.34151e-05
2.33707e-05
2.33266e-05
2.3283e-05
2.32397e-05
2.31968e-05
2.31542e-05
2.31119e-05
2.30699e-05
2.30282e-05
2.29868e-05
2.29458e-05
2.2905e-05
2.28645e-05
2.28243e-05
2.27845e-05
2.27449e-05
2.27056e-05
2.26666e-05
2.26279e-05
2.25895e-05
2.25514e-05
2.25135e-05
2.24759e-05
2.24385e-05
2.24014e-05
2.23645e-05
2.23279e-05
2.22915e-05
2.22554e-05
2.22195e-05
2.21838e-05
2.21484e-05
2.21132e-05
2.20782e-05
2.20434e-05
2.20088e-05
2.19745e-05
2.19403e-05
2.19062e-05
2.34163e-05
2.3374e-05
2.33317e-05
2.32895e-05
2.32475e-05
2.32057e-05
2.31641e-05
2.31227e-05
2.30815e-05
2.30405e-05
2.29998e-05
2.29593e-05
2.2919e-05
2.2879e-05
2.28392e-05
2.27996e-05
2.27604e-05
2.27214e-05
2.26826e-05
2.26441e-05
2.26058e-05
2.25678e-05
2.253e-05
2.24925e-05
2.24552e-05
2.24181e-05
2.23813e-05
2.23447e-05
2.23083e-05
2.22722e-05
2.22363e-05
2.22006e-05
2.21652e-05
2.21299e-05
2.2095e-05
2.20602e-05
2.20256e-05
2.19913e-05
2.19571e-05
2.1923e-05
2.34163e-05
2.3374e-05
2.33317e-05
2.32895e-05
2.32475e-05
2.32057e-05
2.31641e-05
2.31227e-05
2.30815e-05
2.30405e-05
2.29998e-05
2.29593e-05
2.2919e-05
2.2879e-05
2.28392e-05
2.27996e-05
2.27604e-05
2.27214e-05
2.26826e-05
2.26441e-05
2.26058e-05
2.25678e-05
2.253e-05
2.24925e-05
2.24552e-05
2.24181e-05
2.23812e-05
2.23446e-05
2.23082e-05
2.22721e-05
2.22362e-05
2.22005e-05
2.2165e-05
2.21298e-05
2.20947e-05
2.20599e-05
2.20253e-05
2.19908e-05
2.19565e-05
2.19224e-05
2.34151e-05
2.33707e-05
2.33266e-05
2.3283e-05
2.32397e-05
2.31968e-05
2.31542e-05
2.31119e-05
2.30699e-05
2.30282e-05
2.29868e-05
2.29458e-05
2.2905e-05
2.28645e-05
2.28243e-05
2.27845e-05
2.27449e-05
2.27056e-05
2.26666e-05
2.26279e-05
2.25895e-05
2.25513e-05
2.25135e-05
2.24758e-05
2.24384e-05
2.24013e-05
2.23644e-05
2.23278e-05
2.22914e-05
2.22552e-05
2.22193e-05
2.21835e-05
2.2148e-05
2.21127e-05
2.20776e-05
2.20426e-05
2.20079e-05
2.19732e-05
2.19387e-05
2.19043e-05
2.34137e-05
2.33666e-05
2.33201e-05
2.32742e-05
2.32289e-05
2.31841e-05
2.31398e-05
2.3096e-05
2.30527e-05
2.30098e-05
2.29673e-05
2.29252e-05
2.28835e-05
2.28423e-05
2.28014e-05
2.27609e-05
2.27208e-05
2.2681e-05
2.26416e-05
2.26026e-05
2.25638e-05
2.25254e-05
2.24873e-05
2.24495e-05
2.24119e-05
2.23747e-05
2.23377e-05
2.23009e-05
2.22644e-05
2.22281e-05
2.2192e-05
2.21561e-05
2.21204e-05
2.20848e-05
2.20494e-05
2.20142e-05
2.1979e-05
2.1944e-05
2.1909e-05
2.1874e-05
2.34123e-05
2.33625e-05
2.33135e-05
2.32653e-05
2.32178e-05
2.3171e-05
2.31248e-05
2.30793e-05
2.30344e-05
2.29901e-05
2.29463e-05
2.29031e-05
2.28604e-05
2.28182e-05
2.27765e-05
2.27352e-05
2.26944e-05
2.26541e-05
2.26142e-05
2.25746e-05
2.25355e-05
2.24967e-05
2.24583e-05
2.24201e-05
2.23823e-05
2.23447e-05
2.23074e-05
2.22703e-05
2.22334e-05
2.21967e-05
2.21602e-05
2.21238e-05
2.20875e-05
2.20513e-05
2.20152e-05
2.19791e-05
2.1943e-05
2.19069e-05
2.18708e-05
2.18345e-05
2.34111e-05
2.33591e-05
2.33079e-05
2.32576e-05
2.32082e-05
2.31597e-05
2.31119e-05
2.30649e-05
2.30186e-05
2.2973e-05
2.2928e-05
2.28837e-05
2.28401e-05
2.2797e-05
2.27544e-05
2.27125e-05
2.2671e-05
2.26301e-05
2.25896e-05
2.25495e-05
2.25099e-05
2.24706e-05
2.24316e-05
2.23929e-05
2.23545e-05
2.23163e-05
2.22783e-05
2.22404e-05
2.22026e-05
2.21649e-05
2.21273e-05
2.20896e-05
2.20519e-05
2.20142e-05
2.19764e-05
2.19384e-05
2.19003e-05
2.1862e-05
2.18234e-05
2.17846e-05
2.34103e-05
2.33566e-05
2.33039e-05
2.32523e-05
2.32015e-05
2.31517e-05
2.31027e-05
2.30546e-05
2.30073e-05
2.29607e-05
2.29149e-05
2.28697e-05
2.28252e-05
2.27814e-05
2.27382e-05
2.26956e-05
2.26535e-05
2.26119e-05
2.25708e-05
2.253e-05
2.24896e-05
2.24495e-05
2.24096e-05
2.23698e-05
2.23302e-05
2.22906e-05
2.2251e-05
2.22114e-05
2.21716e-05
2.21317e-05
2.20916e-05
2.20512e-05
2.20106e-05
2.19697e-05
2.19284e-05
2.18867e-05
2.18446e-05
2.1802e-05
2.1759e-05
2.17155e-05
2.34098e-05
2.33553e-05
2.33018e-05
2.32493e-05
2.31978e-05
2.31473e-05
2.30976e-05
2.30488e-05
2.30008e-05
2.29536e-05
2.29071e-05
2.28614e-05
2.28163e-05
2.27719e-05
2.27281e-05
2.26848e-05
2.2642e-05
2.25995e-05
2.25574e-05
2.25155e-05
2.24737e-05
2.24319e-05
2.23901e-05
2.23481e-05
2.23058e-05
2.22633e-05
2.22204e-05
2.2177e-05
2.21331e-05
2.20887e-05
2.20437e-05
2.19981e-05
2.19518e-05
2.19048e-05
2.18571e-05
2.18087e-05
2.17595e-05
2.17096e-05
2.16589e-05
2.16073e-05
2.34097e-05
2.33549e-05
2.33011e-05
2.32483e-05
2.31964e-05
2.31455e-05
2.30955e-05
2.30463e-05
2.2998e-05
2.29504e-05
2.29036e-05
2.28574e-05
2.28119e-05
2.27668e-05
2.27222e-05
2.26779e-05
2.26338e-05
2.25896e-05
2.25454e-05
2.2501e-05
2.24561e-05
2.24107e-05
2.23647e-05
2.23178e-05
2.22701e-05
2.22215e-05
2.21718e-05
2.21211e-05
2.20692e-05
2.20163e-05
2.19622e-05
2.1907e-05
2.18506e-05
2.17931e-05
2.17345e-05
2.16748e-05
2.1614e-05
2.1552e-05
2.14889e-05
2.14247e-05
2.34097e-05
2.33549e-05
2.3301e-05
2.32482e-05
2.31962e-05
2.31452e-05
2.30951e-05
2.30459e-05
2.29974e-05
2.29495e-05
2.29023e-05
2.28556e-05
2.28091e-05
2.27628e-05
2.27164e-05
2.26696e-05
2.26223e-05
2.25742e-05
2.2525e-05
2.24746e-05
2.24228e-05
2.23694e-05
2.23142e-05
2.22573e-05
2.21984e-05
2.21377e-05
2.20751e-05
2.20106e-05
2.19443e-05
2.18762e-05
2.18064e-05
2.1735e-05
2.1662e-05
2.15874e-05
2.15114e-05
2.1434e-05
2.13553e-05
2.12751e-05
2.11936e-05
2.11108e-05
2.34097e-05
2.3355e-05
2.33012e-05
2.32484e-05
2.31966e-05
2.31457e-05
2.30956e-05
2.30462e-05
2.29975e-05
2.29491e-05
2.29008e-05
2.28523e-05
2.28032e-05
2.27531e-05
2.27015e-05
2.2648e-05
2.25923e-05
2.25341e-05
2.24731e-05
2.2409e-05
2.23417e-05
2.22713e-05
2.21976e-05
2.21207e-05
2.20408e-05
2.19579e-05
2.18722e-05
2.1784e-05
2.16933e-05
2.16005e-05
2.15056e-05
2.14088e-05
2.13103e-05
2.12102e-05
2.11085e-05
2.10054e-05
2.09009e-05
2.07951e-05
2.06878e-05
2.05792e-05
2.34098e-05
2.33552e-05
2.33016e-05
2.32489e-05
2.31972e-05
2.31464e-05
2.30962e-05
2.30463e-05
2.29962e-05
2.29453e-05
2.28928e-05
2.2838e-05
2.278e-05
2.27183e-05
2.2652e-05
2.25809e-05
2.25044e-05
2.24224e-05
2.23348e-05
2.22417e-05
2.21433e-05
2.20398e-05
2.19316e-05
2.18191e-05
2.17027e-05
2.15828e-05
2.14599e-05
2.13344e-05
2.12066e-05
2.10769e-05
2.09455e-05
2.08126e-05
2.06784e-05
2.05431e-05
2.04066e-05
2.0269e-05
2.01304e-05
1.99906e-05
1.98496e-05
1.97072e-05
2.34098e-05
2.33554e-05
2.33021e-05
2.32497e-05
2.31981e-05
2.31468e-05
2.30951e-05
2.30415e-05
2.29848e-05
2.29232e-05
2.28553e-05
2.27797e-05
2.26954e-05
2.26016e-05
2.24981e-05
2.23849e-05
2.22621e-05
2.21303e-05
2.19902e-05
2.18425e-05
2.16882e-05
2.15282e-05
2.13633e-05
2.11944e-05
2.10224e-05
2.0848e-05
2.06719e-05
2.04946e-05
2.03165e-05
2.01379e-05
1.9959e-05
1.97799e-05
1.96005e-05
1.94208e-05
1.92409e-05
1.90605e-05
1.88796e-05
1.86978e-05
1.85149e-05
1.83305e-05
2.34099e-05
2.33559e-05
2.3303e-05
2.32507e-05
2.31979e-05
2.31422e-05
2.30804e-05
2.30091e-05
2.29248e-05
2.28252e-05
2.27084e-05
2.25736e-05
2.24211e-05
2.22517e-05
2.20666e-05
2.18677e-05
2.16569e-05
2.14362e-05
2.12075e-05
2.09727e-05
2.07332e-05
2.04908e-05
2.02467e-05
2.0002e-05
1.97578e-05
1.95149e-05
1.92738e-05
1.90348e-05
1.87977e-05
1.85624e-05
1.83286e-05
1.8096e-05
1.78644e-05
1.76337e-05
1.74039e-05
1.71743e-05
1.6944e-05
1.67122e-05
1.64783e-05
1.6242e-05
2.34101e-05
2.33569e-05
2.33047e-05
2.32493e-05
2.31838e-05
2.30996e-05
2.29889e-05
2.28459e-05
2.26681e-05
2.24555e-05
2.22107e-05
2.19374e-05
2.16403e-05
2.13244e-05
2.09945e-05
2.0655e-05
2.03097e-05
1.99618e-05
1.96137e-05
1.92674e-05
1.89243e-05
1.85859e-05
1.82533e-05
1.79271e-05
1.76081e-05
1.72963e-05
1.69909e-05
1.66904e-05
1.63938e-05
1.61e-05
1.58088e-05
1.55201e-05
1.52341e-05
1.49515e-05
1.46701e-05
1.43864e-05
1.40985e-05
1.38065e-05
1.35116e-05
1.32157e-05
2.34109e-05
2.33612e-05
2.33021e-05
2.32094e-05
2.30595e-05
2.28372e-05
2.25388e-05
2.217e-05
2.17429e-05
2.12717e-05
2.07705e-05
2.02519e-05
1.97262e-05
1.92019e-05
1.86851e-05
1.818e-05
1.76889e-05
1.72124e-05
1.67508e-05
1.63044e-05
1.58734e-05
1.54581e-05
1.50582e-05
1.46738e-05
1.43041e-05
1.39434e-05
1.35867e-05
1.32322e-05
1.28804e-05
1.2533e-05
1.21921e-05
1.18596e-05
1.15379e-05
1.12259e-05
1.09027e-05
1.05638e-05
1.02194e-05
9.8801e-06
9.5532e-06
9.24313e-06
2.34199e-05
2.33648e-05
2.31905e-05
2.28282e-05
2.22725e-05
2.1561e-05
2.07474e-05
1.9883e-05
1.9008e-05
1.81503e-05
1.7327e-05
1.65478e-05
1.58171e-05
1.51358e-05
1.45006e-05
1.39053e-05
1.33439e-05
1.28119e-05
1.23082e-05
1.18323e-05
1.13834e-05
1.09606e-05
1.05617e-05
1.01888e-05
9.8286e-06
9.45135e-06
9.06477e-06
8.68548e-06
8.32466e-06
7.98836e-06
7.67944e-06
7.39878e-06
7.14679e-06
6.91931e-06
6.69169e-06
6.46125e-06
6.24097e-06
6.04103e-06
5.86607e-06
5.71678e-06
2.34718e-05
2.30283e-05
2.18591e-05
2.02391e-05
1.84953e-05
1.68264e-05
1.532e-05
1.39988e-05
1.28548e-05
1.18677e-05
1.10138e-05
1.02732e-05
9.62808e-06
9.06039e-06
8.54418e-06
8.06119e-06
7.60721e-06
7.18696e-06
6.8036e-06
6.45655e-06
6.14324e-06
5.8614e-06
5.60921e-06
5.38895e-06
5.18714e-06
4.97269e-06
4.7597e-06
4.56877e-06
4.40903e-06
4.28168e-06
4.18481e-06
4.11656e-06
4.07198e-06
4.04777e-06
4.04633e-06
4.06582e-06
4.10209e-06
4.15182e-06
4.21331e-06
4.28416e-06
2.25871e-05
1.7589e-05
1.33179e-05
1.04412e-05
8.52246e-06
7.19678e-06
6.24449e-06
5.53614e-06
4.99326e-06
4.56709e-06
4.22669e-06
3.9513e-06
3.72743e-06
3.54408e-06
3.38549e-06
3.24231e-06
3.11729e-06
3.01616e-06
2.93642e-06
2.87308e-06
2.82358e-06
2.78949e-06
2.77256e-06
2.77325e-06
2.79395e-06
2.83807e-06
2.9052e-06
2.9825e-06
3.04685e-06
3.11134e-06
3.17833e-06
3.2482e-06
3.32132e-06
3.3976e-06
3.47686e-06
3.55873e-06
3.64306e-06
3.72971e-06
3.81858e-06
3.90941e-06
8.16569e-06
4.02232e-06
2.90811e-06
2.41348e-06
2.14728e-06
1.98716e-06
1.88281e-06
1.81081e-06
1.75972e-06
1.7241e-06
1.70169e-06
1.69237e-06
1.69598e-06
1.71382e-06
1.74894e-06
1.80373e-06
1.88313e-06
1.90451e-06
1.89292e-06
1.89386e-06
1.91932e-06
1.97938e-06
2.03687e-06
2.09324e-06
2.14991e-06
2.20807e-06
2.26851e-06
2.33144e-06
2.3964e-06
2.46286e-06
2.53026e-06
2.59799e-06
2.66552e-06
2.73231e-06
2.79787e-06
2.86191e-06
2.92405e-06
2.98391e-06
3.04121e-06
3.09553e-06
9.41057e-07
1.38898e-06
1.70585e-06
1.90292e-06
2.00774e-06
2.04801e-06
2.04579e-06
2.01692e-06
1.97215e-06
1.91842e-06
1.86007e-06
1.79978e-06
1.65901e-06
1.51771e-06
1.39516e-06
1.28906e-06
1.19799e-06
1.11929e-06
1.0504e-06
9.8989e-07
9.37257e-07
8.92511e-07
8.54957e-07
8.24013e-07
7.99089e-07
7.87623e-07
7.79492e-07
7.73366e-07
7.69109e-07
7.66508e-07
7.65306e-07
7.65237e-07
7.66053e-07
7.67534e-07
7.6951e-07
7.76602e-07
7.84069e-07
7.91659e-07
7.99144e-07
8.06327e-07
1.53272e-06
2.73932e-06
5.02532e-06
8.03242e-06
1.11439e-05
1.40318e-05
1.6682e-05
1.91899e-05
2.16259e-05
2.40132e-05
2.63531e-05
2.86457e-05
3.0893e-05
3.30987e-05
3.52682e-05
3.74096e-05
3.95335e-05
4.16522e-05
4.37784e-05
4.59239e-05
4.80993e-05
5.03142e-05
5.25741e-05
5.48786e-05
5.72209e-05
5.95895e-05
6.19698e-05
6.43458e-05
6.67019e-05
6.90224e-05
7.12931e-05
7.35019e-05
7.56381e-05
7.76925e-05
7.96585e-05
8.15334e-05
8.33118e-05
8.49909e-05
8.65709e-05
8.8055e-05
8.94442e-05
9.07378e-05
9.19388e-05
9.30528e-05
9.40856e-05
9.50432e-05
9.59258e-05
9.67354e-05
9.74782e-05
9.81607e-05
9.8789e-05
9.93683e-05
9.99041e-05
0.0001004
0.000100856
0.000101274
0.000101661
0.000102028
0.000102379
0.000102623
0.000102624
0.000102581
0.000102516
0.000102443
0.000102368
0.000102291
0.000102216
0.000102149
0.000102093
0.000102051
0.000102025
0.000102011
0.000102012
0.000102027
0.000102058
0.000102108
0.000102177
0.000102262
0.000102363
0.000102479
0.000102611
0.00010276
0.000102924
0.000103104
0.000103297
0.000103505
0.000103726
0.000103957
0.0001042
0.000104454
0.000104717
0.000104988
0.000105267
0.000105553
0.000105843
0.000106135
0.000106431
0.000106728
0.000107024
0.000107319
0.000107614
0.000107905
0.000108193
0.00010848
0.000108766
0.000109051
0.000109338
0.000109633
0.000109934
0.000110249
0.000110586
0.000110945
0.00011134
0.000111776
0.000112264
0.000112809
0.000113418
0.000114102
0.000114831
0.000115636
0.000116456
0.000117245
0.000117967
0.00011863
0.000118957
0.000119035
0.000119104
0.000119166
0.000119223
0.000119273
0.000119316
0.000119354
0.000119386
0.000119412
0.000119433
0.000119448
0.000119459
0.000119464
0.000119464
0.000119459
0.00011945
0.000119437
0.000119421
0.0001194
0.000119375
0.000119346
0.000119312
0.000119272
0.000119228
0.000119179
0.000119124
0.000119064
0.000118999
0.000118929
0.000118854
0.000118773
0.000118688
0.000118598
0.000118502
0.000118402
0.000118298
0.000118188
0.000118074
0.000117955
0.000117832
0.000117705
0.000117574
0.000117438
0.000117298
0.000117154
0.000117006
0.000116855
0.0001167
0.000116541
0.000116378
0.000116212
0.000116043
0.00011587
0.000115694
0.000115515
0.000115333
0.000115148
0.00011496
0.000114769
0.000114575
0.000114379
0.00011418
0.000113979
0.000113775
0.000113568
0.00011336
0.000113149
0.000112936
0.00011272
0.000112503
0.000112284
0.000112062
0.000111839
0.000111614
0.000111387
0.000111158
0.000110927
0.000110695
0.000110461
0.000110226
0.000109989
0.00010975
0.000109511
0.000109269
0.000109026
0.000108782
0.000108536
0.00010829
0.000108041
0.000107792
0.000107541
0.00010729
0.000107037
0.000106783
0.000106527
0.000106271
0.000106014
0.000105755
0.000105496
0.000105236
0.000104974
0.000104712
0.000104449
0.000104185
0.00010392
0.000103654
0.000103388
0.000103121
0.000102853
0.000102584
0.000102315
0.000102044
0.000101774
0.000101502
0.00010123
0.000100958
0.000100684
0.000100411
0.000100136
9.98617e-05
9.95865e-05
9.93107e-05
9.90345e-05
9.87579e-05
9.84809e-05
9.82034e-05
9.79256e-05
9.76474e-05
9.73689e-05
9.709e-05
9.68108e-05
9.65313e-05
9.62516e-05
9.59715e-05
9.56913e-05
9.54108e-05
9.513e-05
9.48491e-05
9.45681e-05
9.42868e-05
9.40054e-05
9.37239e-05
9.34423e-05
9.31607e-05
9.28789e-05
9.25972e-05
9.23154e-05
9.20337e-05
9.17519e-05
9.14703e-05
9.11887e-05
9.09072e-05
9.06258e-05
9.03446e-05
9.00635e-05
8.97827e-05
8.9502e-05
8.92216e-05
8.89415e-05
8.86617e-05
8.83821e-05
8.81029e-05
8.78241e-05
8.75456e-05
8.72675e-05
8.69898e-05
8.67125e-05
8.64357e-05
8.61593e-05
8.58834e-05
8.56081e-05
8.53329e-05
8.50602e-05
8.47846e-05
8.44357e-05
3.63592e-06
4.24951e-06
5.0311e-06
6.18537e-06
7.78983e-06
9.80587e-06
1.20968e-05
1.4506e-05
1.69228e-05
1.92993e-05
2.16298e-05
2.39196e-05
2.61691e-05
2.83756e-05
3.05385e-05
3.26616e-05
3.47522e-05
3.6819e-05
3.88712e-05
4.09186e-05
4.29711e-05
4.50388e-05
4.71302e-05
4.92497e-05
5.13973e-05
5.35683e-05
5.5754e-05
5.79435e-05
6.01243e-05
6.22835e-05
6.44083e-05
6.6487e-05
6.85091e-05
7.04654e-05
7.23484e-05
7.41531e-05
7.58747e-05
7.75095e-05
7.9056e-05
8.05152e-05
8.18877e-05
8.31738e-05
8.4375e-05
8.5495e-05
8.65384e-05
8.75103e-05
8.84131e-05
8.92487e-05
9.00213e-05
9.07364e-05
9.13993e-05
9.20153e-05
9.25893e-05
9.31257e-05
9.36257e-05
9.40914e-05
9.45286e-05
9.47207e-05
9.47749e-05
9.47912e-05
9.47591e-05
9.47128e-05
9.46612e-05
9.46072e-05
9.45509e-05
9.44959e-05
9.445e-05
9.44196e-05
9.44062e-05
9.44097e-05
9.44287e-05
9.44617e-05
9.4511e-05
9.45793e-05
9.46677e-05
9.4777e-05
9.4906e-05
9.50521e-05
9.52139e-05
9.53921e-05
9.55879e-05
9.58019e-05
9.60334e-05
9.62806e-05
9.65423e-05
9.68181e-05
9.71066e-05
9.74072e-05
9.77203e-05
9.80461e-05
9.83827e-05
9.87284e-05
9.9083e-05
9.94457e-05
9.98139e-05
0.000100186
0.000100563
0.000100943
0.000101324
0.000101705
0.000102085
0.000102464
0.000102838
0.000103208
0.000103575
0.000103936
0.000104292
0.000104645
0.000104994
0.000105341
0.000105692
0.000106047
0.000106411
0.000106795
0.000107199
0.000107636
0.000108114
0.000108645
0.000109227
0.000109885
0.000110599
0.000111369
0.000112187
0.000113002
0.000113777
0.000114491
0.00011515
0.000115606
0.000115704
0.000115794
0.000115876
0.000115952
0.000116022
0.000116085
0.000116142
0.000116193
0.000116238
0.000116277
0.000116311
0.00011634
0.000116365
0.000116386
0.000116403
0.000116417
0.000116425
0.000116428
0.000116425
0.000116417
0.000116403
0.000116383
0.000116357
0.000116325
0.000116288
0.000116244
0.000116195
0.000116141
0.00011608
0.000116015
0.000115944
0.000115867
0.000115786
0.000115699
0.000115608
0.000115512
0.00011541
0.000115305
0.000115194
0.000115079
0.00011496
0.000114836
0.000114709
0.000114577
0.000114441
0.000114301
0.000114158
0.000114011
0.00011386
0.000113705
0.000113548
0.000113386
0.000113222
0.000113054
0.000112884
0.00011271
0.000112534
0.000112354
0.000112172
0.000111987
0.0001118
0.00011161
0.000111417
0.000111223
0.000111025
0.000110826
0.000110624
0.00011042
0.000110215
0.000110007
0.000109797
0.000109585
0.000109371
0.000109155
0.000108938
0.000108719
0.000108498
0.000108276
0.000108052
0.000107826
0.000107599
0.00010737
0.00010714
0.000106908
0.000106675
0.000106441
0.000106205
0.000105968
0.00010573
0.000105491
0.00010525
0.000105008
0.000104765
0.00010452
0.000104275
0.000104029
0.000103781
0.000103532
0.000103283
0.000103032
0.000102781
0.000102528
0.000102275
0.00010202
0.000101765
0.000101509
0.000101252
0.000100995
0.000100736
0.000100477
0.000100217
9.99568e-05
9.96955e-05
9.94336e-05
9.9171e-05
9.89078e-05
9.8644e-05
9.83796e-05
9.81146e-05
9.78491e-05
9.7583e-05
9.73165e-05
9.70494e-05
9.67819e-05
9.65139e-05
9.62455e-05
9.59766e-05
9.57074e-05
9.54377e-05
9.51677e-05
9.48973e-05
9.46266e-05
9.43556e-05
9.40842e-05
9.38126e-05
9.35407e-05
9.32685e-05
9.29961e-05
9.27236e-05
9.24508e-05
9.21778e-05
9.19047e-05
9.16315e-05
9.13582e-05
9.10848e-05
9.08113e-05
9.05378e-05
9.02643e-05
8.99908e-05
8.97173e-05
8.94439e-05
8.91706e-05
8.88973e-05
8.86242e-05
8.83513e-05
8.80785e-05
8.78059e-05
8.75335e-05
8.72614e-05
8.69895e-05
8.67179e-05
8.64466e-05
8.61756e-05
8.5905e-05
8.56347e-05
8.53647e-05
8.50952e-05
8.48261e-05
8.45571e-05
8.42905e-05
8.4021e-05
8.36791e-05
4.2008e-06
4.41648e-06
4.63925e-06
4.98154e-06
5.51332e-06
6.31496e-06
7.45e-06
8.93856e-06
1.07498e-05
1.28119e-05
1.50325e-05
1.73237e-05
1.96213e-05
2.18908e-05
2.41201e-05
2.63065e-05
2.84492e-05
3.05499e-05
3.26132e-05
3.46464e-05
3.66587e-05
3.86598e-05
4.06588e-05
4.26631e-05
4.46773e-05
4.67026e-05
4.87367e-05
5.07738e-05
5.28061e-05
5.48241e-05
5.6818e-05
5.87776e-05
6.06935e-05
6.25571e-05
6.43608e-05
6.60987e-05
6.77657e-05
6.93578e-05
7.08724e-05
7.23087e-05
7.3667e-05
7.49474e-05
7.61509e-05
7.72798e-05
7.83374e-05
7.9328e-05
8.02546e-05
8.11195e-05
8.1926e-05
8.26785e-05
8.33815e-05
8.40398e-05
8.46581e-05
8.52407e-05
8.579e-05
8.63083e-05
8.67264e-05
8.67739e-05
8.67477e-05
8.66749e-05
8.65875e-05
8.65279e-05
8.64739e-05
8.64173e-05
8.63561e-05
8.63066e-05
8.62797e-05
8.62748e-05
8.62878e-05
8.63162e-05
8.63594e-05
8.64205e-05
8.65042e-05
8.6612e-05
8.6743e-05
8.68957e-05
8.70682e-05
8.7258e-05
8.74657e-05
8.7693e-05
8.79407e-05
8.8209e-05
8.84967e-05
8.88008e-05
8.91196e-05
8.94531e-05
8.9801e-05
9.01629e-05
9.05394e-05
9.09305e-05
9.1334e-05
9.17477e-05
9.2171e-05
9.26032e-05
9.30423e-05
9.34874e-05
9.39387e-05
9.43953e-05
9.48555e-05
9.5318e-05
9.57822e-05
9.62461e-05
9.67081e-05
9.71679e-05
9.76246e-05
9.80757e-05
9.8521e-05
9.8961e-05
9.93932e-05
9.9818e-05
0.000100238
0.000100651
0.00010106
0.00010147
0.000101882
0.000102301
0.000102736
0.000103193
0.00010368
0.00010421
0.000104788
0.000105424
0.000106123
0.000106862
0.000107653
0.000108476
0.00010929
0.000110074
0.000110799
0.000111466
0.000112087
0.000112265
0.000112376
0.000112479
0.000112574
0.000112665
0.000112749
0.000112825
0.000112896
0.000112963
0.000113026
0.000113086
0.000113142
0.000113194
0.000113239
0.000113278
0.00011331
0.000113336
0.000113355
0.000113368
0.000113373
0.000113373
0.000113365
0.000113351
0.000113331
0.000113305
0.000113272
0.000113234
0.000113189
0.000113139
0.000113083
0.000113022
0.000112955
0.000112882
0.000112805
0.000112723
0.000112635
0.000112543
0.000112446
0.000112344
0.000112238
0.000112128
0.000112013
0.000111894
0.000111771
0.000111644
0.000111513
0.000111378
0.00011124
0.000111098
0.000110952
0.000110803
0.000110651
0.000110496
0.000110337
0.000110176
0.000110012
0.000109844
0.000109674
0.000109502
0.000109326
0.000109148
0.000108968
0.000108785
0.0001086
0.000108412
0.000108223
0.000108031
0.000107837
0.000107641
0.000107443
0.000107242
0.000107041
0.000106837
0.000106631
0.000106424
0.000106215
0.000106004
0.000105791
0.000105577
0.000105362
0.000105145
0.000104926
0.000104706
0.000104484
0.000104261
0.000104037
0.000103811
0.000103584
0.000103356
0.000103126
0.000102895
0.000102663
0.00010243
0.000102196
0.00010196
0.000101724
0.000101486
0.000101247
0.000101007
0.000100767
0.000100525
0.000100282
0.000100038
9.97937e-05
9.95482e-05
9.93018e-05
9.90546e-05
9.88065e-05
9.85577e-05
9.8308e-05
9.80576e-05
9.78065e-05
9.75546e-05
9.7302e-05
9.70488e-05
9.67948e-05
9.65403e-05