/*--------------------------------*- C++ -*----------------------------------*\
| =========                 |                                                 |
| \\      /  F ield         | OpenFOAM: The Open Source CFD Toolbox           |
|  \\    /   O peration     | Version:  2306                                  |
|   \\  /    A nd           | Website:  www.openfoam.com                      |
|    \\/     M anipulation  |                                                 |
\*---------------------------------------------------------------------------*/
FoamFile
{
    version     2.0;
    format      ascii;
    arch        "LSB;label=32;scalar=64";
    class       volScalarField;
    location    "2000";
    object      omega;
}
// * * * * * * * * * * * * * * * * * * * * * * * * * * * * * * * * * * * * * //

dimensions      [0 0 -1 0 0 0 0];

internalField   nonuniform List<scalar> 
25600
(
5751.85
6076.67
6315.6
6467.94
6550.12
6581.9
6580.15
6557.36
6522.13
6480.05
6434.58
6387.86
6341.47
6296
6251.74
6208.97
6168.17
6129.86
6093.94
6060.16
6028.55
5999.29
5972.68
5948.91
5928.06
5910.16
5895.17
5882.95
5873.26
5865.79
5860.23
5856.26
5853.63
5852.12
5851.61
5852.01
5853.35
5855.44
5859.59
5861.72
461.229
947.052
1325.57
1613.02
1821.72
1965.38
2059.13
2117.3
2151.94
2172.32
2185.05
2195.16
2205.04
2216.16
2228.73
2243.57
2263.93
2295.89
2344.99
2410.32
2483.87
2547.7
2599.41
2640.11
2671.2
2693.79
2708.75
2716.87
2719.31
2717.12
2711.16
2702.16
2690.7
2677.22
2662.05
2645.32
2627.64
2609.42
2585.64
2578.77
164.919
208.242
269.235
334.67
397.991
456.045
507.45
551.885
589.712
621.725
648.911
672.286
692.859
712.042
733.026
758.267
788.052
821.017
857.051
896.833
940.359
986.068
1032.15
1077.5
1120.54
1159.51
1195.99
1228.14
1256.14
1280.41
1301.26
1318.96
1333.69
1345.65
1354.99
1361.84
1366.33
1368.33
1368.27
1361.57
158.659
159.411
165.311
175.409
188.188
202.402
217.14
231.774
245.894
259.232
271.646
283.142
293.763
303.695
313.572
324.017
335.275
347.263
359.825
372.954
386.744
401.285
416.63
432.508
449.97
472.061
498.109
526.029
554.276
582.026
608.882
634.72
659.211
681.93
701.988
719.301
734.453
747.725
759.559
767.7
159.002
157.169
156.129
156.296
157.737
160.294
163.716
167.741
172.144
176.74
181.383
185.973
190.443
194.752
198.913
202.981
207.028
211.093
215.226
219.446
223.768
228.214
232.831
237.586
242.786
249.259
256.991
265.66
274.988
284.776
294.88
305.207
315.668
326.247
337.989
351.237
365.398
379.687
393.656
406.094
159.052
157.179
155.414
153.889
152.736
152.035
151.802
152.006
152.589
153.479
154.605
155.901
157.311
158.788
160.298
161.816
163.332
164.844
166.357
167.876
169.407
170.953
172.525
174.124
175.768
177.533
179.496
181.697
184.144
186.829
189.731
192.829
196.097
199.53
203.48
208.112
213.294
218.802
224.422
229.877
159.053
157.192
155.38
153.632
151.987
150.485
149.163
148.046
147.142
146.446
145.944
145.616
145.436
145.381
145.427
145.552
145.738
145.972
146.243
146.544
146.87
147.216
147.581
147.963
148.362
148.782
149.235
149.736
150.3
150.938
151.656
152.457
153.34
154.3
155.356
156.541
157.874
159.347
160.919
162.574
159.051
157.19
155.375
153.606
151.888
150.23
148.645
147.148
145.75
144.461
143.286
142.225
141.274
140.429
139.68
139.019
138.434
137.917
137.459
137.052
136.689
136.363
136.071
135.807
135.569
135.353
135.16
134.991
134.847
134.734
134.654
134.61
134.604
134.638
134.71
134.823
134.982
135.188
135.432
135.713
159.05
157.187
155.37
153.598
151.87
150.187
148.55
146.963
145.431
143.958
142.548
141.206
139.933
138.731
137.599
136.535
135.536
134.599
133.719
132.893
132.115
131.381
130.688
130.031
129.407
128.813
128.247
127.707
127.191
126.7
126.233
125.791
125.374
124.982
124.614
124.271
123.952
123.655
123.376
123.114
159.049
157.184
155.365
153.591
151.861
150.173
148.527
146.922
145.358
143.836
142.358
140.924
139.537
138.197
136.906
135.663
134.469
133.323
132.223
131.169
130.158
129.189
128.258
127.364
126.504
125.676
124.878
124.109
123.366
122.649
121.955
121.286
120.639
120.014
119.41
118.827
118.263
117.716
117.186
116.667
159.048
157.183
155.362
153.586
151.854
150.164
148.515
146.906
145.335
143.801
142.304
140.845
139.422
138.036
136.687
135.375
134.101
132.864
131.664
130.5
129.372
128.278
127.219
126.192
125.197
124.231
123.295
122.386
121.504
120.647
119.814
119.005
118.218
117.452
116.708
115.983
115.277
114.588
113.915
113.255
159.048
157.181
155.359
153.582
151.848
150.156
148.506
146.894
145.32
143.783
142.281
140.814
139.38
137.98
136.612
135.276
133.972
132.699
131.458
130.247
129.066
127.914
126.792
125.698
124.632
123.593
122.58
121.592
120.629
119.69
118.773
117.88
117.008
116.156
115.325
114.514
113.721
112.945
112.186
111.442
159.048
157.179
155.356
153.576
151.841
150.147
148.494
146.88
145.304
143.764
142.259
140.789
139.351
137.945
136.571
135.226
133.912
132.626
131.368
130.138
128.935
127.759
126.609
125.484
124.384
123.308
122.256
121.227
120.221
119.237
118.274
117.332
116.411
115.51
114.628
113.764
112.919
112.091
111.28
110.484
159.046
157.175
155.348
153.566
151.827
150.131
148.475
146.858
145.278
143.735
142.228
140.754
139.313
137.904
136.526
135.177
133.858
132.567
131.302
130.065
128.853
127.667
126.504
125.366
124.251
123.158
122.088
121.039
120.012
119.005
118.018
117.051
116.104
115.175
114.265
113.372
112.497
111.639
110.796
109.969
159.043
157.166
155.333
153.545
151.801
150.099
148.438
146.816
145.232
143.686
142.174
140.697
139.253
137.84
136.459
135.108
133.785
132.491
131.223
129.982
128.766
127.575
126.408
125.264
124.143
123.043
121.965
120.908
119.871
118.853
117.856
116.877
115.916
114.974
114.049
113.141
112.25
111.375
110.516
109.672
159.037
157.149
155.306
153.508
151.755
150.046
148.377
146.749
145.16
143.607
142.091
140.609
139.161
137.745
136.361
135.007
133.682
132.385
131.115
129.872
128.654
127.461
126.292
125.146
124.022
122.92
121.839
120.778
119.737
118.716
117.714
116.73
115.764
114.816
113.885
112.97
112.072
111.19
110.323
109.47
159.029
157.125
155.268
153.458
151.693
149.973
148.295
146.658
145.061
143.502
141.98
140.493
139.04
137.621
136.233
134.875
133.548
132.249
130.978
129.733
128.514
127.32
126.15
125.003
123.879
122.776
121.694
120.633
119.592
118.57
117.567
116.582
115.615
114.665
113.732
112.816
111.915
111.03
110.16
109.304
159.02
157.098
155.224
153.399
151.621
149.889
148.201
146.555
144.949
143.383
141.855
140.362
138.905
137.481
136.09
134.73
133.4
132.099
130.827
129.581
128.361
127.167
125.997
124.85
123.726
122.623
121.542
120.482
119.441
118.42
117.417
116.433
115.466
114.517
113.584
112.668
111.768
110.883
110.013
109.157
159.01
157.071
155.181
153.342
151.552
149.809
148.111
146.457
144.845
143.272
141.738
140.242
138.78
137.354
135.96
134.598
133.266
131.964
130.69
129.444
128.224
127.029
125.859
124.712
123.589
122.487
121.407
120.347
119.308
118.287
117.286
116.303
115.337
114.389
113.458
112.543
111.643
110.759
109.89
109.035
159.002
157.049
155.148
153.3
151.502
149.752
148.049
146.39
144.774
143.198
141.662
140.162
138.699
137.271
135.875
134.512
133.18
131.877
130.603
129.356
128.136
126.942
125.772
124.626
123.502
122.401
121.322
120.263
119.224
118.204
117.204
116.221
115.257
114.31
113.379
112.465
111.567
110.684
109.815
108.962
159.002
157.049
155.148
153.3
151.502
149.752
148.049
146.39
144.774
143.198
141.662
140.162
138.699
137.271
135.875
134.512
133.18
131.877
130.603
129.356
128.136
126.942
125.772
124.626
123.502
122.401
121.322
120.263
119.224
118.204
117.204
116.222
115.257
114.31
113.379
112.465
111.567
110.684
109.816
108.962
159.01
157.071
155.181
153.342
151.552
149.809
148.111
146.457
144.845
143.272
141.738
140.242
138.78
137.354
135.96
134.598
133.266
131.964
130.69
129.444
128.224
127.029
125.859
124.712
123.589
122.487
121.407
120.347
119.307
118.287
117.286
116.303
115.337
114.389
113.458
112.543
111.643
110.76
109.891
109.036
159.02
157.098
155.224
153.399
151.621
149.889
148.201
146.555
144.949
143.383
141.855
140.362
138.905
137.481
136.09
134.73
133.4
132.099
130.827
129.581
128.361
127.167
125.996
124.85
123.725
122.623
121.542
120.481
119.441
118.419
117.417
116.432
115.466
114.516
113.584
112.668
111.767
110.882
110.012
109.157
159.029
157.125
155.268
153.458
151.693
149.973
148.295
146.658
145.061
143.502
141.98
140.493
139.04
137.62
136.233
134.875
133.548
132.249
130.978
129.733
128.514
127.32
126.15
125.003
123.879
122.776
121.694
120.633
119.592
118.569
117.566
116.581
115.614
114.664
113.731
112.814
111.913
111.028
110.158
109.303
159.037
157.149
155.306
153.508
151.755
150.046
148.377
146.749
145.16
143.607
142.091
140.609
139.161
137.745
136.361
135.007
133.682
132.385
131.115
129.872
128.654
127.461
126.292
125.145
124.021
122.919
121.838
120.777
119.737
118.715
117.713
116.729
115.762
114.814
113.882
112.967
112.069
111.186
110.319
109.467
159.043
157.166
155.333
153.545
151.801
150.099
148.438
146.816
145.232
143.686
142.174
140.697
139.253
137.84
136.459
135.108
133.785
132.491
131.223
129.982
128.766
127.575
126.408
125.264
124.142
123.043
121.964
120.907
119.87
118.852
117.854
116.875
115.914
114.971
114.046
113.137
112.246
111.371
110.513
109.67
159.046
157.175
155.348
153.566
151.827
150.131
148.475
146.858
145.278
143.735
142.228
140.754
139.313
137.904
136.526
135.177
133.858
132.566
131.302
130.065
128.853
127.666
126.504
125.366
124.25
123.158
122.087
121.038
120.011
119.004
118.017
117.049
116.101
115.172
114.262
113.369
112.495
111.637
110.796
109.973
159.048
157.179
155.356
153.576
151.841
150.147
148.494
146.88
145.304
143.764
142.259
140.789
139.351
137.945
136.571
135.226
133.911
132.626
131.368
130.138
128.935
127.759
126.608
125.483
124.383
123.307
122.255
121.226
120.22
119.235
118.273
117.331
116.41
115.509
114.627
113.765
112.922
112.097
111.291
110.502
159.048
157.181
155.359
153.582
151.848
150.156
148.506
146.894
145.32
143.783
142.281
140.814
139.38
137.98
136.612
135.276
133.972
132.699
131.458
130.247
129.066
127.914
126.792
125.698
124.632
123.592
122.579
121.591
120.628
119.689
118.774
117.881
117.01
116.16
115.332
114.524
113.736
112.968
112.22
111.492
159.048
157.183
155.362
153.586
151.854
150.164
148.515
146.906
145.334
143.801
142.304
140.845
139.422
138.036
136.687
135.375
134.101
132.864
131.663
130.499
129.371
128.278
127.219
126.192
125.197
124.231
123.295
122.387
121.505
120.649
119.818
119.011
118.227
117.465
116.726
116.01
115.315
114.642
113.991
113.362
159.049
157.184
155.365
153.591
151.861
150.173
148.527
146.922
145.358
143.836
142.358
140.924
139.537
138.197
136.905
135.663
134.469
133.323
132.223
131.169
130.158
129.189
128.258
127.364
126.505
125.677
124.88
124.112
123.371
122.656
121.966
121.3
120.659
120.043
119.451
118.883
118.341
117.824
117.335
116.873
159.05
157.187
155.37
153.598
151.87
150.187
148.55
146.963
145.431
143.958
142.548
141.206
139.933
138.731
137.599
136.535
135.536
134.599
133.719
132.893
132.115
131.382
130.689
130.033
129.41
128.817
128.253
127.715
127.202
126.716
126.255
125.821
125.415
125.038
124.692
124.377
124.097
123.853
123.65
123.491
159.051
157.19
155.375
153.606
151.888
150.23
148.645
147.148
145.75
144.461
143.286
142.225
141.274
140.429
139.68
139.019
138.434
137.917
137.459
137.053
136.69
136.365
136.073
135.811
135.574
135.361
135.171
135.006
134.868
134.763
134.694
134.664
134.679
134.739
134.849
135.015
135.246
135.552
135.941
136.418
159.053
157.192
155.38
153.632
151.987
150.485
149.163
148.046
147.142
146.446
145.944
145.616
145.436
145.381
145.427
145.552
145.738
145.973
146.244
146.546
146.872
147.22
147.586
147.971
148.373
148.797
149.255
149.764
150.338
150.99
151.728
152.557
153.479
154.492
155.626
156.928
158.427
160.136
162.053
164.168
159.052
157.179
155.414
153.889
152.736
152.035
151.801
152.006
152.589
153.479
154.605
155.901
157.311
158.788
160.298
161.816
163.333
164.845
166.359
167.879
169.411
170.96
172.534
174.138
175.787
177.561
179.537
181.756
184.229
186.949
189.901
193.07
196.433
200.022
204.244
209.259
214.949
221.153
227.738
234.616
159.002
157.169
156.129
156.296
157.737
160.294
163.716
167.741
172.144
176.74
181.383
185.973
190.443
194.753
198.913
202.982
207.03
211.096
215.231
219.454
223.78
228.23
232.855
237.62
242.842
249.351
257.129
265.86
275.274
285.18
295.447
306.003
316.771
327.83
340.373
354.666
370.098
386.05
402.121
418.12
158.659
159.411
165.311
175.409
188.188
202.402
217.14
231.774
245.894
259.233
271.646
283.143
293.765
303.697
313.576
324.023
335.285
347.277
359.845
372.984
386.788
401.349
416.725
432.641
450.189
472.411
498.608
526.705
555.169
583.197
610.412
636.721
661.789
685.185
706.018
724.39
740.989
756.361
770.719
784.484
164.919
208.242
269.235
334.67
397.991
456.046
507.451
551.886
589.714
621.728
648.915
672.291
692.867
712.053
733.043
758.293
788.089
821.068
857.125
896.941
940.512
986.283
1032.45
1077.9
1121.06
1160.19
1196.87
1229.27
1257.59
1282.24
1303.59
1321.88
1337.35
1350.25
1360.76
1369.09
1375.43
1380.08
1383.16
1385.75
461.229
947.052
1325.57
1613.02
1821.72
1965.38
2059.13
2117.31
2151.95
2172.33
2185.06
2195.17
2205.05
2216.19
2228.76
2243.62
2264
2296
2345.17
2410.59
2484.23
2548.19
2600.07
2640.98
2672.33
2695.24
2710.6
2719.21
2722.28
2720.9
2715.96
2708.27
2698.52
2687.29
2675.05
2662.2
2649.06
2635.86
2622.88
2609.67
5751.85
6076.67
6315.6
6467.94
6550.12
6581.9
6580.15
6557.36
6522.13
6480.04
6434.58
6387.86
6341.46
6295.99
6251.72
6208.95
6168.14
6129.81
6093.87
6060.06
6028.41
5999.1
5972.42
5948.56
5927.59
5909.53
5894.36
5881.9
5871.91
5864.06
5858
5853.4
5849.94
5847.36
5845.42
5843.94
5842.78
5841.79
5840.85
5839.85
4312.03
3247.28
2642.63
2279.73
2023.99
1823.43
1659.01
1521.73
1405.64
1306.26
1220.25
1145.07
1078.74
1019.77
966.977
919.47
876.511
837.503
801.945
769.411
739.55
712.075
686.74
663.331
641.661
621.563
602.89
585.512
569.309
554.179
540.024
526.76
514.306
502.593
491.556
481.135
471.277
461.932
453.058
444.612
436.558
428.863
421.496
414.429
407.639
401.103
394.801
388.716
382.832
377.134
371.609
366.245
361.033
355.96
351.023
346.216
341.532
336.962
332.504
328.154
323.914
319.779
315.744
311.805
307.959
304.202
300.53
296.941
293.43
289.994
286.632
283.341
280.117
276.959
273.865
270.831
267.856
264.939
262.076
259.267
256.509
253.801
251.141
248.528
245.96
243.435
240.953
238.512
236.111
233.748
231.423
229.134
226.88
224.66
222.474
220.319
218.196
216.104
214.041
212.007
210.002
208.023
206.072
204.145
202.244
200.367
198.513
196.681
194.871
193.082
191.313
189.564
187.833
186.122
184.429
182.753
181.096
179.457
177.837
176.237
174.658
173.1
171.565
170.053
168.563
167.095
165.65
164.225
162.82
161.436
160.071
158.724
157.395
156.084
154.789
153.511
152.248
151.001
149.767
148.546
147.337
146.139
144.951
143.773
142.604
141.445
140.296
139.157
138.028
136.908
135.799
134.699
133.609
132.529
131.458
130.397
129.345
128.303
127.269
126.245
125.231
124.225
123.228
122.241
121.262
120.292
119.331
118.378
117.435
116.5
115.573
114.656
113.747
112.846
111.954
111.07
110.195
109.328
108.47
107.62
106.779
105.945
105.12
104.303
103.495
102.694
101.902
101.118
100.342
99.5736
98.8134
98.0611
97.3168
96.5803
95.8515
95.1305
94.4172
93.7116
93.0135
92.3229
91.6398
90.9641
90.2958
89.6348
88.981
88.3344
87.6948
87.0624
86.4369
85.8184
85.2067
84.6018
84.0036
83.4121
82.8271
82.2487
81.6768
81.1112
80.552
79.999
79.4523
78.9116
78.377
77.8484
77.3258
76.809
76.2979
75.7927
75.293
74.799
74.3105
73.8275
73.3498
72.8775
72.4105
71.9487
71.4921
71.0405
70.594
70.1524
69.7157
69.2839
68.8569
68.4346
68.017
67.604
67.1955
66.7915
66.392
65.9969
65.6061
65.2196
64.8373
64.4591
64.0851
63.7152
63.3493
62.9873
62.6293
62.2751
61.9247
61.5781
61.2352
60.896
60.5604
60.2284
59.8999
59.5749
59.2533
58.9352
58.6203
58.3088
58.0006
57.6956
57.3937
57.095
56.7994
56.5069
56.2173
55.9308
55.6472
55.3665
55.0886
54.8136
54.5413
54.2718
54.005
53.7409
53.4794
53.2205
52.9641
52.7103
52.459
52.2101
51.9636
51.7195
51.4782
51.2362
51.0163
50.6693
2429.32
2265.62
2134.51
2027.28
1923.84
1814.05
1699.12
1585.2
1477.78
1379.68
1291.47
1212.5
1141.75
1078.22
1021.03
969.409
922.653
880.177
841.469
806.085
773.649
743.838
716.375
691.017
667.552
645.794
625.576
606.755
589.198
572.792
557.435
543.033
529.503
516.772
504.77
493.436
482.713
472.551
462.903
453.726
444.982
436.634
428.651
421.005
413.668
406.618
399.832
393.291
386.977
380.876
374.972
369.254
363.71
358.329
353.103
348.023
343.083
338.281
333.614
329.077
324.667
320.379
316.205
312.14
308.182
304.324
300.562
296.892
293.31
289.812
286.395
283.057
279.794
276.602
273.48
270.424
267.432
264.502
261.632
258.819
256.061
253.356
250.703
248.098
245.542
243.032
240.566
238.144
235.763
233.422
231.12
228.855
226.626
224.432
222.273
220.146
218.052
215.989
213.956
211.953
209.978
208.031
206.112
204.219
202.351
200.508
198.688
196.892
195.117
193.364
191.632
189.92
188.227
186.553
184.896
183.256
181.633
180.026
178.435
176.86
175.301
173.76
172.237
170.732
169.246
167.781
166.335
164.909
163.503
162.116
160.747
159.397
158.063
156.747
155.446
154.161
152.891
151.635
150.392
149.161
147.941
146.73
145.529
144.338
143.155
141.983
140.821
139.669
138.526
137.394
136.272
135.16
134.058
132.965
131.883
130.809
129.745
128.691
127.646
126.61
125.584
124.567
123.559
122.559
121.569
120.588
119.616
118.653
117.699
116.753
115.816
114.888
113.969
113.058
112.157
111.263
110.379
109.503
108.636
107.777
106.926
106.085
105.251
104.426
103.61
102.801
102.001
101.21
100.426
99.651
98.8839
98.1249
97.374
96.631
95.896
95.1689
94.4497
93.7382
93.0345
92.3385
91.65
90.9691
90.2957
89.6298
88.9712
88.3199
87.6759
87.039
86.4092
85.7865
85.1707
84.5619
83.9598
83.3646
82.776
82.194
81.6186
81.0497
80.4872
79.9311
79.3812
78.8376
78.3
77.7686
77.2432
76.7236
76.21
75.7021
75.2
74.7036
74.2127
73.7274
73.2475
72.773
72.3039
71.84
71.3813
70.9278
70.4794
70.0359
69.5975
69.1639
68.7351
68.3112
67.8919
67.4773
67.0673
66.6618
66.2608
65.8642
65.472
65.0841
64.7005
64.3211
63.9458
63.5746
63.2075
62.8444
62.4852
62.1299
61.7784
61.4307
61.0868
60.7466
60.41
60.077
59.7476
59.4216
59.0992
58.7801
58.4644
58.1521
57.843
57.5372
57.2346
56.9351
56.6388
56.3455
56.0553
55.768
55.4837
55.2023
54.9238
54.6482
54.3753
54.1052
53.8378
53.5731
53.311
53.0516
52.7947
52.5403
52.2885
52.0391
51.7922
51.5476
51.3059
51.0633
50.8433
50.4953
1362.51
1360.37
1356.76
1359.12
1370.38
1385.72
1395.73
1391.61
1369.39
1330.54
1279.9
1223.1
1164.73
1107.72
1053.6
1002.97
955.958
912.536
872.527
835.681
801.726
770.402
741.465
714.695
689.888
666.857
645.435
625.47
606.826
589.385
573.039
557.694
543.262
529.669
516.843
504.722
493.249
482.372
472.042
462.217
452.856
443.923
435.384
427.211
419.375
411.853
404.622
397.66
390.949
384.473
378.216
372.166
366.31
360.638
355.138
349.801
344.621
339.598
334.728
330.005
325.424
320.975
316.655
312.456
308.376
304.408
300.546
296.786
293.123
289.555
286.076
282.684
279.375
276.143
272.988
269.905
266.892
263.946
261.065
258.246
255.486
252.782
250.133
247.537
244.992
242.496
240.046
237.642
235.281
232.962
230.683
228.442
226.239
224.072
221.94
219.841
217.776
215.742
213.739
211.766
209.823
207.907
206.019
204.158
202.322
200.511
198.723
196.959
195.218
193.499
191.801
190.123
188.465
186.826
185.204
183.6
182.012
180.44
178.883
177.34
175.811
174.296
172.795
171.309
169.837
168.38
166.94
165.516
164.11
162.72
161.347
159.991
158.652
157.328
156.019
154.725
153.445
152.178
150.923
149.68
148.445
147.22
146.004
144.798
143.602
142.416
141.24
140.075
138.92
137.775
136.641
135.517
134.402
133.298
132.203
131.118
130.043
128.977
127.921
126.874
125.837
124.809
123.79
122.78
121.78
120.788
119.806
118.833
117.869
116.914
115.968
115.031
114.103
113.184
112.273
111.372
110.479
109.595
108.72
107.854
106.996
106.147
105.307
104.475
103.652
102.838
102.031
101.234
100.444
99.6636
98.891
98.1267
97.3707
96.6227
95.8829
95.1511
94.4274
93.7115
93.0035
92.3034
91.611
90.9262
90.2491
89.5796
88.9175
88.2628
87.6155
86.9755
86.3426
85.7169
85.0983
84.4867
83.882
83.2841
82.693
82.1086
81.5309
80.9597
80.395
79.8367
79.2848
78.7391
78.1996
77.6663
77.139
76.6178
76.1024
75.5929
75.0892
74.5912
74.0988
73.612
73.1307
72.6549
72.1844
71.7193
71.2594
70.8046
70.355
69.9104
69.4709
69.0362
68.6064
68.1815
67.7612
67.3457
66.9348
66.5284
66.1265
65.7291
65.3361
64.9475
64.5631
64.1829
63.8069
63.4351
63.0673
62.7035
62.3437
61.9877
61.6357
61.2874
60.943
60.6022
60.2651
59.9316
59.6017
59.2753
58.9523
58.6328
58.3167
58.004
57.6945
57.3883
57.0853
56.7854
56.4887
56.1951
55.9045
55.6169
55.3323
55.0506
54.7718
54.4959
54.2227
53.9523
53.6847
53.4197
53.1574
52.8978
52.6407
52.3861
52.1341
51.8845
51.6374
51.3926
51.1508
50.908
50.688
50.3394
777.826
788.41
798.562
809.962
825.882
849.616
883.067
925.119
971.074
1013.77
1045.96
1062.72
1062.71
1047.91
1022.23
989.971
954.616
918.522
883.073
848.963
816.542
785.971
757.288
730.45
705.368
681.931
660.018
639.507
620.284
602.245
585.293
569.338
554.299
540.103
526.684
513.981
501.941
490.513
479.649
469.306
459.445
450.032
441.032
432.418
424.161
416.237
408.623
401.298
394.244
387.442
380.877
374.536
368.406
362.476
356.734
351.17
345.777
340.548
335.485
330.581
325.828
321.22
316.753
312.42
308.216
304.135
300.17
296.318
292.574
288.935
285.395
281.949
278.593
275.323
272.136
269.029
265.999
263.041
260.153
257.332
254.573
251.876
249.238
246.656
244.128
241.651
239.224
236.844
234.509
232.217
229.967
227.757
225.585
223.45
221.351
219.286
217.255
215.255
213.287
211.349
209.44
207.56
205.707
203.881
202.079
200.302
198.549
196.819
195.112
193.426
191.762
190.119
188.495
186.89
185.304
183.734
182.181
180.644
179.122
177.614
176.12
174.637
173.167
171.708
170.261
168.825
167.4
165.988
164.589
163.202
161.829
160.47
159.125
157.793
156.474
155.168
153.876
152.595
151.325
150.066
148.816
147.575
146.343
145.122
143.913
142.714
141.525
140.348
139.181
138.025
136.88
135.744
134.619
133.504
132.399
131.303
130.218
129.142
128.076
127.019
125.972
124.934
123.906
122.887
121.878
120.878
119.888
118.906
117.934
116.971
116.018
115.073
114.138
113.212
112.295
111.387
110.488
109.598
108.717
107.845
106.982
106.127
105.282
104.445
103.618
102.798
101.988
101.186
100.393
99.608
98.8317
98.0638
97.3043
96.5531
95.8101
95.0753
94.3486
93.63
92.9194
92.2167
91.5218
90.8348
90.1554
89.4837
88.8196
88.163
87.5138
86.872
86.2375
85.6101
84.99
84.3768
83.7707
83.1715
82.5791
81.9934
81.4145
80.8422
80.2764
79.7171
79.1642
78.6176
78.0772
77.543
77.0149
76.4929
75.9768
75.4665
74.9621
74.4635
73.9705
73.4831
73.0013
72.5249
72.054
71.5883
71.128
70.6728
70.2228
69.7779
69.3379
68.9029
68.4728
68.0475
67.627
67.2112
66.8
66.3934
65.9913
65.5937
65.2005
64.8117
64.4271
64.0468
63.6707
63.2987
62.9307
62.5668
62.2069
61.8509
61.4988
61.1504
60.8059
60.4651
60.1279
59.7944
59.4644
59.138
58.815
58.4955
58.1794
57.8666
57.5572
57.251
56.948
56.6482
56.3515
56.0579
55.7673
55.4798
55.1952
54.9136
54.6349
54.359
54.0859
53.8156
53.548
53.2831
53.0209
52.7613
52.5043
52.2499
51.998
51.7485
51.5015
51.2569
51.0152
50.7725
50.5529
50.2041
418.516
428.467
436.66
444.831
454.034
465.505
480.965
502.521
532.234
571.316
619.179
672.813
727.077
775.939
814.136
838.572
848.851
846.799
835.454
817.989
797.021
774.391
751.258
728.308
705.944
684.413
663.817
644.206
625.582
607.918
591.171
575.293
560.232
545.939
532.366
519.469
507.201
495.519
484.382
473.753
463.599
453.889
444.594
435.687
427.142
418.937
411.051
403.463
396.156
389.113
382.319
375.758
369.421
363.294
357.367
351.63
346.073
340.688
335.468
330.409
325.505
320.756
316.155
311.697
307.375
303.185
299.125
295.188
291.37
287.664
284.067
280.572
277.176
273.875
270.666
267.543
264.504
261.543
258.657
255.843
253.097
250.417
247.801
245.244
242.744
240.299
237.905
235.561
233.264
231.011
228.801
226.632
224.503
222.411
220.355
218.334
216.347
214.391
212.468
210.574
208.71
206.874
205.064
203.279
201.519
199.783
198.07
196.379
194.711
193.064
191.438
189.833
188.246
186.678
185.127
183.594
182.076
180.575
179.089
177.617
176.158
174.711
173.275
171.849
170.433
169.027
167.628
166.239
164.858
163.486
162.122
160.768
159.422
158.087
156.761
155.444
154.138
152.841
151.554
150.277
149.01
147.754
146.509
145.276
144.054
142.845
141.646
140.459
139.283
138.118
136.963
135.818
134.684
133.56
132.447
131.343
130.249
129.165
128.091
127.027
125.972
124.927
123.892
122.867
121.851
120.844
119.848
118.86
117.883
116.914
115.955
115.006
114.066
113.135
112.214
111.301
110.398
109.505
108.62
107.745
106.878
106.021
105.173
104.333
103.503
102.681
101.869
101.065
100.269
99.4828
98.7048
97.9354
97.1744
96.4218
95.6776
94.9416
94.2139
93.4943
92.7828
92.0793
91.3837
90.696
90.016
89.3438
88.6792
88.0222
87.3727
86.7305
86.0957
85.4682
84.8478
84.2346
83.6283
83.029
82.4366
81.851
81.2721
80.6998
80.1341
79.5749
79.0222
78.4757
77.9355
77.4015
76.8736
76.3518
75.836
75.326
74.8219
74.3235
73.8308
73.3437
72.8622
72.3862
71.9155
71.4502
70.9902
70.5354
70.0858
69.6412
69.2016
68.767
68.3373
67.9124
67.4923
67.0768
66.6661
66.2599
65.8582
65.461
65.0682
64.6797
64.2956
63.9157
63.54
63.1684
62.8009
62.4374
62.0779
61.7223
61.3706
61.0227
60.6786
60.3382
60.0014
59.6683
59.3388
59.0128
58.6902
58.3711
58.0554
57.7431
57.434
57.1283
56.8257
56.5263
56.23
55.9368
55.6467
55.3596
55.0754
54.7942
54.5159
54.2404
53.9677
53.6978
53.4306
53.1662
52.9044
52.6452
52.3886
52.1346
51.8831
51.634
51.3875
51.1432
50.902
50.6596
50.4407
50.092
234.812
241.403
248.625
254.728
260.151
265.567
271.592
278.94
288.573
301.699
319.764
344.278
376.34
416.107
462.33
512.033
561.158
605.44
641.419
667.143
682.36
688.213
686.612
679.622
669.048
656.275
642.269
627.664
612.867
598.145
583.673
569.561
555.875
542.654
529.916
517.67
505.898
494.582
483.709
473.263
463.228
453.584
444.314
435.4
426.824
418.567
410.615
402.952
395.563
388.434
381.552
374.904
368.48
362.269
356.262
350.448
344.82
339.368
334.08
328.95
323.971
319.14
314.456
309.914
305.511
301.246
297.116
293.115
289.239
285.481
281.838
278.308
274.887
271.568
268.348
265.222
262.184
259.231
256.36
253.566
250.847
248.199
245.618
243.101
240.643
238.244
235.899
233.606
231.361
229.163
227.008
224.895
222.822
220.788
218.789
216.826
214.897
213
211.134
209.299
207.492
205.712
203.957
202.226
200.518
198.833
197.17
195.529
193.909
192.31
190.73
189.169
187.626
186.1
184.591
183.097
181.62
180.158
178.71
177.276
175.854
174.443
173.043
171.653
170.271
168.898
167.531
166.171
164.817
163.468
162.124
160.785
159.451
158.122
156.798
155.478
154.164
152.856
151.554
150.261
148.981
147.714
146.461
145.221
143.993
142.776
141.572
140.379
139.196
138.025
136.864
135.714
134.574
133.445
132.326
131.217
130.118
129.029
127.95
126.881
125.822
124.773
123.734
122.705
121.686
120.676
119.676
118.686
117.706
116.735
115.774
114.822
113.88
112.948
112.025
111.111
110.207
109.313
108.427
107.551
106.684
105.827
104.978
104.139
103.308
102.487
101.674
100.87
100.076
99.2895
98.512
97.7432
96.9829
96.2311
95.4877
94.7526
94.0258
93.3072
92.5967
91.8943
91.1998
90.5132
89.8344
89.1633
88.4999
87.8441
87.1958
86.5549
85.9214
85.2951
84.676
84.064
83.459
82.861
82.2699
81.6856
81.1079
80.537
79.9725
79.4146
78.8631
78.3179
77.779
77.2462
76.7196
76.199
75.6844
75.1756
74.6727
74.1756
73.6841
73.1982
72.7178
72.243
71.7735
71.3093
70.8505
70.3968
69.9483
69.5048
69.0663
68.6328
68.2042
67.7803
67.3613
66.9469
66.5371
66.132
65.7313
65.3351
64.9433
64.5559
64.1727
63.7938
63.419
63.0484
62.6819
62.3193
61.9607
61.6061
61.2553
60.9083
60.565
60.2255
59.8897
59.5574
59.2287
58.9036
58.5819
58.2636
57.9488
57.6372
57.329
57.024
56.7223
56.4237
56.1282
55.8358
55.5464
55.2601
54.9767
54.6962
54.4186
54.1439
53.872
53.6028
53.3364
53.0727
52.8116
52.5531
52.2973
52.0439
51.7932
51.5448
51.299
51.0554
50.8149
50.5733
50.3552
50.0071
164.007
166.236
169.337
172.606
175.595
178.36
181.089
183.982
187.271
191.266
196.381
203.178
212.353
224.767
241.39
263.036
290.127
322.43
358.9
397.642
435.984
471.329
501.578
525.449
542.558
553.288
558.518
559.335
556.798
551.82
545.124
537.254
528.607
519.471
510.057
500.519
490.972
481.497
472.151
462.974
453.993
445.23
436.695
428.396
420.337
412.516
404.932
397.58
390.456
383.555
376.869
370.392
364.118
358.039
352.15
346.443
340.911
335.548
330.344
325.289
320.374
315.596
310.952
306.442
302.064
297.815
293.693
289.696
285.821
282.065
278.424
274.898
271.483
268.175
264.967
261.855
258.838
255.912
253.075
250.321
247.646
245.045
242.514
240.051
237.652
235.315
233.036
230.812
228.636
226.507
224.423
222.382
220.381
218.419
216.495
214.606
212.752
210.93
209.139
207.379
205.645
203.936
202.249
200.584
198.942
197.322
195.722
194.144
192.585
191.045
189.524
188.018
186.528
185.054
183.594
182.149
180.718
179.301
177.897
176.505
175.123
173.752
172.39
171.036
169.691
168.352
167.02
165.692
164.369
163.048
161.731
160.416
159.102
157.79
156.479
155.169
153.861
152.556
151.254
149.96
148.679
147.413
146.16
144.92
143.692
142.475
141.27
140.076
138.893
137.72
136.559
135.407
134.267
133.136
132.016
130.906
129.806
128.717
127.638
126.568
125.509
124.46
123.422
122.393
121.374
120.365
119.366
118.377
117.398
116.428
115.469
114.519
113.579
112.648
111.727
110.816
109.914
109.022
108.139
107.265
106.401
105.546
104.7
103.864
103.036
102.217
101.408
100.607
99.8152
99.0321
98.2577
97.4919
96.7347
95.986
95.2456
94.5136
93.7899
93.0743
92.3669
91.6674
90.9759
90.2923
89.6165
88.9483
88.2878
87.6349
86.9894
86.3514
85.7206
85.0971
84.4807
83.8714
83.2691
82.6737
82.0852
81.5034
80.9283
80.3598
79.7978
79.2423
78.6932
78.1504
77.6138
77.0833
76.5589
76.0406
75.5281
75.0216
74.5208
74.0257
73.5363
73.0524
72.5741
72.1012
71.6337
71.1715
70.7145
70.2627
69.816
69.3744
68.9377
68.506
68.0791
67.657
67.2396
66.8269
66.4188
66.0153
65.6162
65.2216
64.8314
64.4455
64.0639
63.6865
63.3132
62.944
62.5789
62.2178
61.8607
61.5074
61.158
60.8124
60.4705
60.1323
59.7977
59.4668
59.1394
58.8155
58.4951
58.1781
57.8644
57.5541
57.2471
56.9433
56.6427
56.3453
56.0509
55.7597
55.4714
55.1862
54.9039
54.6245
54.3481
54.0744
53.8035
53.5354
53.2701
53.0074
52.7473