/*--------------------------------*- C++ -*----------------------------------*\
| =========                 |                                                 |
| \\      /  F ield         | OpenFOAM: The Open Source CFD Toolbox           |
|  \\    /   O peration     | Version:  2306                                  |
|   \\  /    A nd           | Website:  www.openfoam.com                      |
|    \\/     M anipulation  |                                                 |
\*---------------------------------------------------------------------------*/
FoamFile
{
    version     2.0;
    format      ascii;
    arch        "LSB;label=32;scalar=64";
    class       volScalarField;
    location    "2000";
    object      p;
}
// * * * * * * * * * * * * * * * * * * * * * * * * * * * * * * * * * * * * * //

dimensions      [0 2 -2 0 0 0 0];

internalField   nonuniform List<scalar> 
25600
(
-0.148878
-0.160835
-0.164697
-0.165813
-0.167413
-0.169384
-0.171275
-0.17306
-0.174836
-0.176627
-0.17842
-0.180208
-0.182012
-0.183847
-0.185697
-0.187539
-0.189347
-0.191117
-0.192886
-0.194663
-0.196421
-0.198125
-0.199756
-0.201309
-0.202785
-0.204187
-0.205509
-0.206758
-0.207954
-0.209112
-0.210244
-0.21136
-0.212475
-0.213599
-0.214747
-0.215933
-0.217192
-0.218583
-0.220145
-0.222247
-0.151767
-0.161027
-0.164526
-0.165664
-0.167233
-0.169184
-0.171074
-0.172866
-0.174651
-0.176453
-0.178255
-0.180072
-0.181914
-0.183768
-0.18562
-0.187459
-0.189268
-0.191049
-0.192823
-0.194594
-0.19634
-0.198037
-0.199667
-0.201221
-0.2027
-0.204107
-0.205434
-0.206687
-0.207888
-0.209049
-0.210184
-0.211304
-0.212421
-0.213549
-0.214699
-0.215888
-0.217149
-0.218535
-0.220075
-0.221925
-0.153828
-0.160992
-0.164441
-0.165765
-0.167354
-0.169295
-0.171181
-0.172973
-0.174756
-0.176549
-0.178339
-0.180146
-0.181974
-0.183803
-0.185629
-0.187445
-0.189244
-0.191021
-0.192787
-0.194543
-0.196272
-0.197955
-0.199576
-0.201124
-0.202598
-0.203999
-0.205324
-0.206583
-0.207793
-0.208962
-0.210104
-0.211228
-0.212348
-0.213477
-0.214627
-0.215813
-0.217064
-0.218422
-0.219896
-0.221492
-0.155561
-0.16104
-0.164397
-0.165865
-0.167443
-0.169337
-0.171196
-0.172976
-0.174755
-0.176546
-0.178325
-0.180122
-0.181947
-0.183773
-0.185598
-0.187415
-0.189215
-0.190991
-0.192752
-0.194502
-0.196223
-0.197898
-0.199512
-0.201056
-0.202528
-0.203927
-0.205256
-0.206525
-0.207742
-0.208917
-0.210062
-0.211188
-0.212309
-0.213435
-0.214578
-0.215754
-0.216985
-0.218303
-0.219695
-0.221112
-0.156983
-0.161189
-0.164392
-0.165957
-0.16752
-0.169378
-0.171225
-0.173004
-0.174781
-0.176573
-0.178354
-0.180147
-0.181965
-0.183786
-0.185604
-0.187415
-0.189212
-0.190979
-0.192729
-0.194473
-0.196185
-0.197851
-0.199458
-0.200997
-0.202467
-0.203868
-0.205201
-0.206473
-0.207693
-0.20887
-0.210017
-0.211146
-0.212268
-0.213392
-0.21453
-0.215694
-0.216904
-0.218181
-0.219495
-0.220778
-0.158239
-0.161376
-0.164383
-0.166034
-0.167591
-0.169416
-0.17125
-0.173025
-0.174798
-0.176586
-0.178369
-0.180161
-0.181974
-0.18379
-0.185604
-0.187409
-0.189201
-0.190966
-0.192712
-0.194447
-0.196151
-0.197808
-0.199409
-0.200945
-0.202413
-0.203814
-0.205148
-0.206423
-0.207647
-0.208828
-0.209979
-0.21111
-0.212231
-0.213352
-0.214483
-0.215636
-0.216824
-0.218059
-0.219303
-0.220478
-0.159267
-0.161627
-0.164413
-0.166114
-0.167662
-0.169451
-0.17127
-0.17304
-0.174808
-0.176593
-0.178376
-0.180167
-0.181976
-0.183788
-0.185598
-0.187399
-0.189187
-0.19095
-0.192693
-0.19442
-0.196117
-0.197767
-0.199363
-0.200895
-0.202362
-0.203763
-0.205099
-0.206377
-0.207604
-0.208789
-0.209942
-0.211074
-0.212194
-0.213311
-0.214435
-0.215576
-0.216741
-0.217935
-0.219117
-0.220205
-0.160115
-0.161918
-0.164471
-0.166193
-0.167733
-0.169487
-0.171289
-0.173053
-0.174817
-0.176597
-0.17838
-0.18017
-0.181975
-0.183784
-0.185589
-0.187386
-0.18917
-0.190931
-0.19267
-0.194392
-0.196082
-0.197727
-0.199318
-0.200847
-0.202313
-0.203714
-0.205052
-0.206332
-0.207562
-0.208749
-0.209905
-0.211037
-0.212156
-0.213269
-0.214386
-0.215512
-0.216655
-0.217811
-0.218939
-0.219958
-0.160823
-0.162236
-0.164541
-0.166265
-0.167801
-0.169522
-0.171307
-0.173066
-0.174825
-0.176601
-0.178383
-0.180172
-0.181972
-0.183777
-0.185579
-0.187373
-0.189152
-0.190911
-0.192648
-0.194364
-0.196048
-0.197687
-0.199274
-0.200801
-0.202266
-0.203666
-0.205006
-0.206288
-0.207521
-0.208711
-0.209867
-0.211
-0.212117
-0.213226
-0.214333
-0.215446
-0.216567
-0.217688
-0.218769
-0.219732
-0.161418
-0.162546
-0.164624
-0.166334
-0.167866
-0.169558
-0.171325
-0.173078
-0.174833
-0.176605
-0.178385
-0.180172
-0.181969
-0.183771
-0.185569
-0.187359
-0.189136
-0.190892
-0.192625
-0.194336
-0.196015
-0.19765
-0.199233
-0.200758
-0.202221
-0.203622
-0.204962
-0.206247
-0.207481
-0.208673
-0.209831
-0.210963
-0.212077
-0.213181
-0.21428
-0.215379
-0.216478
-0.217566
-0.218606
-0.219524
-0.161919
-0.162839
-0.164718
-0.166401
-0.167927
-0.169593
-0.171343
-0.17309
-0.174841
-0.176609
-0.178387
-0.180172
-0.181967
-0.183765
-0.18556
-0.187347
-0.18912
-0.190873
-0.192604
-0.194311
-0.195985
-0.197616
-0.199195
-0.200718
-0.20218
-0.203581
-0.204922
-0.206208
-0.207443
-0.208636
-0.209795
-0.210926
-0.212037
-0.213136
-0.214226
-0.215311
-0.216389
-0.217448
-0.218451
-0.219332
-0.162342
-0.163108
-0.164816
-0.166463
-0.167984
-0.169627
-0.17136
-0.173101
-0.174848
-0.176613
-0.178389
-0.180172
-0.181964
-0.183759
-0.185552
-0.187335
-0.189106
-0.190857
-0.192585
-0.194287
-0.195957
-0.197584
-0.199161
-0.200681
-0.202142
-0.203543
-0.204884
-0.206171
-0.207408
-0.208602
-0.20976
-0.21089
-0.211998
-0.213091
-0.214172
-0.215243
-0.216301
-0.217333
-0.218303
-0.219154
-0.162697
-0.16335
-0.164913
-0.166521
-0.168035
-0.169658
-0.171376
-0.173111
-0.174855
-0.176616
-0.17839
-0.180172
-0.181962
-0.183754
-0.185544
-0.187325
-0.189093
-0.190841
-0.192567
-0.194267
-0.195933
-0.197556
-0.19913
-0.200648
-0.202108
-0.203508
-0.20485
-0.206138
-0.207375
-0.208569
-0.209727
-0.210855
-0.21196
-0.213046
-0.214118
-0.215176
-0.216215
-0.217222
-0.218164
-0.218989
-0.162993
-0.163563
-0.165006
-0.166573
-0.16808
-0.169687
-0.171391
-0.173121
-0.174861
-0.176619
-0.178392
-0.180172
-0.18196
-0.18375
-0.185537
-0.187316
-0.189082
-0.190828
-0.192552
-0.194248
-0.195911
-0.197532
-0.199103
-0.200619
-0.202078
-0.203478
-0.20482
-0.206108
-0.207345
-0.208539
-0.209696
-0.210822
-0.211922
-0.213003
-0.214065
-0.21511
-0.216132
-0.217116
-0.218032
-0.218835
-0.163237
-0.163745
-0.16509
-0.16662
-0.16812
-0.169713
-0.171404
-0.173129
-0.174866
-0.176622
-0.178393
-0.180172
-0.181958
-0.183746
-0.185532
-0.187309
-0.189072
-0.190817
-0.192538
-0.194232
-0.195892
-0.19751
-0.199079
-0.200594
-0.202052
-0.203451
-0.204793
-0.206081
-0.207318
-0.208512
-0.209667
-0.21079
-0.211887
-0.21296
-0.214014
-0.215046
-0.216051
-0.217014
-0.217908
-0.218692
-0.163434
-0.163896
-0.165164
-0.166661
-0.168153
-0.169735
-0.171416
-0.173136
-0.174871
-0.176625
-0.178394
-0.180172
-0.181956
-0.183743
-0.185527
-0.187302
-0.189064
-0.190807
-0.192527
-0.194219
-0.195876
-0.197492
-0.19906
-0.200573
-0.20203
-0.203428
-0.20477
-0.206057
-0.207294
-0.208487
-0.20964
-0.21076
-0.211852
-0.212919
-0.213964
-0.214984
-0.215973
-0.216917
-0.217791
-0.218559
-0.163588
-0.164017
-0.165225
-0.166694
-0.16818
-0.169753
-0.171425
-0.173142
-0.174875
-0.176627
-0.178395
-0.180172
-0.181955
-0.183741
-0.185523
-0.187297
-0.189058
-0.190799
-0.192518
-0.194208
-0.195864
-0.197478
-0.199043
-0.200556
-0.202011
-0.203409
-0.20475
-0.206037
-0.207273
-0.208464
-0.209616
-0.210732
-0.21182
-0.21288
-0.213916
-0.214924
-0.215898
-0.216824
-0.217681
-0.218435
-0.163701
-0.164108
-0.165272
-0.166719
-0.1682
-0.169766
-0.171433
-0.173146
-0.174878
-0.176629
-0.178395
-0.180172
-0.181954
-0.183739
-0.18552
-0.187293
-0.189053
-0.190793
-0.192511
-0.194199
-0.195854
-0.197466
-0.199031
-0.200542
-0.201997
-0.203394
-0.204734
-0.20602
-0.207255
-0.208444
-0.209593
-0.210707
-0.211789
-0.212843
-0.213869
-0.214866
-0.215826
-0.216737
-0.217577
-0.218319
-0.163775
-0.164168
-0.165304
-0.166736
-0.168214
-0.169776
-0.171438
-0.173149
-0.17488
-0.17663
-0.178396
-0.180172
-0.181954
-0.183738
-0.185518
-0.187291
-0.189049
-0.190789
-0.192506
-0.194194
-0.195847
-0.197458
-0.199022
-0.200532
-0.201986
-0.203382
-0.204721
-0.206006
-0.20724
-0.208427
-0.209573
-0.210683
-0.21176
-0.212807
-0.213825
-0.214811
-0.215758
-0.216654
-0.21748
-0.218211
-0.163812
-0.164198
-0.16532
-0.166745
-0.16822
-0.16978
-0.17144
-0.17315
-0.174881
-0.17663
-0.178396
-0.180172
-0.181953
-0.183737
-0.185517
-0.187289
-0.189047
-0.190787
-0.192503
-0.19419
-0.195843
-0.197454
-0.199016
-0.200526
-0.201979
-0.203374
-0.204712
-0.205996
-0.207228
-0.208413
-0.209556
-0.210661
-0.211733
-0.212774
-0.213783
-0.214758
-0.215692
-0.216575
-0.217388
-0.218111
-0.163812
-0.164198
-0.16532
-0.166745
-0.16822
-0.16978
-0.17144
-0.17315
-0.174881
-0.17663
-0.178396
-0.180172
-0.181953
-0.183737
-0.185517
-0.187289
-0.189047
-0.190786
-0.192502
-0.194189
-0.195842
-0.197452
-0.199014
-0.200523
-0.201975
-0.20337
-0.204707
-0.205989
-0.207219
-0.208401
-0.209541
-0.210642
-0.211708
-0.212742
-0.213743
-0.214708
-0.215631
-0.216501
-0.217302
-0.218017
-0.163775
-0.164168
-0.165304
-0.166736
-0.168214
-0.169775
-0.171438
-0.173149
-0.17488
-0.176629
-0.178396
-0.180172
-0.181953
-0.183737
-0.185518
-0.18729
-0.189048
-0.190788
-0.192504
-0.194191
-0.195843
-0.197454
-0.199016
-0.200524
-0.201976
-0.203369
-0.204705
-0.205985
-0.207213
-0.208392
-0.209528
-0.210625
-0.211686
-0.212713
-0.213705
-0.214661
-0.215573
-0.216431
-0.217222
-0.217929
-0.163701
-0.164108
-0.165272
-0.166719
-0.1682
-0.169766
-0.171433
-0.173146
-0.174878
-0.176628
-0.178395
-0.180172
-0.181954
-0.183738
-0.185519
-0.187292
-0.189051
-0.190791
-0.192507
-0.194195
-0.195848
-0.197459
-0.199021
-0.200529
-0.20198
-0.203373
-0.204707
-0.205985
-0.20721
-0.208386
-0.209518
-0.210611
-0.211666
-0.212686
-0.21367
-0.214616
-0.215518
-0.216366
-0.217147
-0.217848
-0.163588
-0.164017
-0.165225
-0.166694
-0.16818
-0.169752
-0.171425
-0.173141
-0.174875
-0.176627
-0.178394
-0.180171
-0.181954
-0.18374
-0.185522
-0.187295
-0.189055
-0.190796
-0.192513
-0.194202
-0.195856
-0.197467
-0.19903
-0.200538
-0.201989
-0.20338
-0.204712
-0.205988
-0.20721
-0.208383
-0.209511
-0.210598
-0.211648
-0.212661
-0.213638
-0.214575
-0.215467
-0.216305
-0.217077
-0.217772
-0.163434
-0.163896
-0.165164
-0.16666
-0.168153
-0.169734
-0.171416
-0.173136
-0.174871
-0.176624
-0.178393
-0.180171
-0.181955
-0.183742
-0.185525
-0.1873
-0.18906
-0.190802
-0.192521
-0.194211
-0.195866
-0.197479
-0.199042
-0.200551
-0.202001
-0.203391
-0.204722
-0.205995
-0.207214
-0.208383
-0.209507
-0.210589
-0.211632
-0.212639
-0.213608
-0.214536
-0.215419
-0.216248
-0.217013
-0.217701
-0.163237
-0.163745
-0.16509
-0.16662
-0.16812
-0.169712
-0.171404
-0.173129
-0.174866
-0.176622
-0.178392
-0.180171
-0.181957
-0.183744
-0.185529
-0.187305
-0.189068
-0.190811
-0.192531
-0.194223
-0.19588
-0.197494
-0.199058
-0.200567
-0.202017
-0.203406
-0.204735
-0.206005
-0.207221
-0.208386
-0.209505
-0.210582
-0.211619
-0.212619
-0.213581
-0.214501
-0.215375
-0.216195
-0.216952
-0.217636
-0.162993
-0.163563
-0.165006
-0.166573
-0.16808
-0.169687
-0.171391
-0.17312
-0.17486
-0.176619
-0.178391
-0.180171
-0.181958
-0.183748
-0.185534
-0.187312
-0.189077
-0.190822
-0.192543
-0.194237
-0.195896
-0.197513
-0.199078
-0.200588
-0.202037
-0.203425
-0.204751
-0.206019
-0.207231
-0.208392
-0.209506
-0.210577
-0.211609
-0.212602
-0.213556
-0.214469
-0.215334
-0.216147
-0.216897
-0.217576
-0.162697
-0.16335
-0.164913
-0.166521
-0.168035
-0.169658
-0.171376
-0.173111
-0.174854
-0.176615
-0.178389
-0.180171
-0.18196
-0.183752
-0.185541
-0.187321
-0.189087
-0.190834
-0.192557
-0.194254
-0.195916
-0.197535
-0.199102
-0.200612
-0.202061
-0.203448
-0.204772
-0.206037
-0.207245
-0.208401
-0.20951
-0.210575
-0.2116
-0.212587
-0.213534
-0.214439
-0.215297
-0.216102
-0.216845
-0.217521
-0.162342
-0.163108
-0.164816
-0.166463
-0.167984
-0.169627
-0.17136
-0.173101
-0.174847
-0.176612
-0.178387
-0.180171
-0.181962
-0.183757
-0.185548
-0.18733
-0.189099
-0.190848
-0.192573
-0.194273
-0.195939
-0.19756
-0.199129
-0.200641
-0.202089
-0.203475
-0.204797
-0.206058
-0.207261
-0.208413
-0.209516
-0.210576
-0.211595
-0.212575
-0.213515
-0.214412
-0.215263
-0.21606
-0.216798
-0.21747
-0.161919
-0.162839
-0.164718
-0.1664
-0.167927
-0.169593
-0.171343
-0.17309
-0.17484
-0.176608
-0.178386
-0.18017
-0.181964
-0.183762
-0.185556
-0.187341
-0.189113
-0.190864
-0.192592
-0.194295
-0.195964
-0.197589
-0.199161
-0.200673
-0.202122
-0.203506
-0.204825
-0.206082
-0.207281
-0.208428
-0.209525
-0.210579
-0.211591
-0.212564
-0.213498
-0.214388
-0.215232
-0.216023
-0.216755
-0.217423
-0.161418
-0.162546
-0.164624
-0.166334
-0.167866
-0.169558
-0.171325
-0.173078
-0.174832
-0.176604
-0.178384
-0.18017
-0.181967
-0.183768
-0.185565
-0.187353
-0.189128
-0.190881
-0.192612
-0.194319
-0.195993
-0.197621
-0.199195
-0.200709
-0.202158
-0.20354
-0.204857
-0.20611
-0.207304
-0.208445
-0.209537
-0.210584
-0.21159
-0.212557
-0.213483
-0.214367
-0.215204
-0.215988
-0.216716
-0.21738
-0.160823
-0.162236
-0.164541
-0.166265
-0.167801
-0.169522
-0.171307
-0.173065
-0.174824
-0.1766
-0.178381
-0.180169
-0.181969
-0.183774
-0.185574
-0.187366
-0.189144
-0.1909
-0.192633
-0.194345
-0.196023
-0.197656
-0.199233
-0.200749
-0.202197
-0.203578
-0.204892
-0.206141
-0.20733
-0.208465
-0.20955
-0.210591
-0.21159
-0.212551
-0.213471
-0.214348
-0.215178
-0.215957
-0.21668
-0.217341
-0.160115
-0.161918
-0.164471
-0.166193
-0.167733
-0.169486
-0.171288
-0.173053
-0.174816
-0.176596
-0.178379
-0.180168
-0.181972
-0.18378
-0.185584
-0.187379
-0.189161
-0.190919
-0.192655
-0.194372
-0.196056
-0.197693
-0.199274
-0.200791
-0.20224
-0.203619
-0.20493
-0.206174
-0.207358
-0.208487
-0.209566
-0.2106
-0.211593
-0.212546
-0.21346
-0.214331
-0.215155
-0.215929
-0.216647
-0.217305
-0.159267
-0.161626
-0.164412
-0.166114
-0.167662
-0.169451
-0.171269
-0.173039
-0.174807
-0.176591
-0.178374
-0.180165
-0.181973
-0.183784
-0.185592
-0.187392
-0.189177
-0.190937
-0.192676
-0.194399
-0.196089
-0.197732
-0.199317
-0.200836
-0.202285
-0.203663
-0.20497
-0.20621
-0.207388
-0.20851
-0.209583
-0.21061
-0.211596
-0.212543
-0.213452
-0.214316
-0.215134
-0.215903
-0.216617
-0.217273
-0.158239
-0.161376
-0.164383
-0.166034
-0.167591
-0.169415
-0.17125
-0.173024
-0.174797
-0.176585
-0.178367
-0.180159
-0.181971
-0.183786
-0.185598
-0.187402
-0.189191
-0.190953
-0.192695
-0.194425
-0.196122
-0.197771
-0.19936
-0.200882
-0.202332
-0.203709
-0.205013
-0.206248
-0.20742
-0.208535
-0.209601
-0.210622
-0.211601
-0.212542
-0.213445
-0.214304
-0.215117
-0.215881
-0.216591
-0.217245
-0.156983
-0.161189
-0.164392
-0.165957
-0.16752
-0.169378
-0.171225
-0.173003
-0.17478
-0.176571
-0.178352
-0.180144
-0.181961
-0.183781
-0.185598
-0.187408
-0.189201
-0.190965
-0.192711
-0.19445
-0.196155
-0.197812
-0.199407
-0.200932
-0.202383
-0.203758
-0.205059
-0.20629
-0.207456
-0.208564
-0.209623
-0.210637
-0.211609
-0.212544
-0.21344
-0.214295
-0.215103
-0.215862
-0.216569
-0.21722
-0.155561
-0.161039
-0.164397
-0.165865
-0.167443
-0.169337
-0.171195
-0.172976
-0.174754
-0.176545
-0.178323
-0.180119
-0.181943
-0.183769
-0.185592
-0.187407
-0.189204
-0.190977
-0.192733
-0.194478
-0.196192
-0.197857
-0.19946
-0.200988
-0.20244
-0.203813
-0.205109
-0.206335
-0.207496
-0.208599
-0.209651
-0.210658
-0.211625
-0.212554
-0.213444
-0.214293
-0.215097
-0.215851
-0.216554
-0.217204
-0.153827
-0.160992
-0.164441
-0.165764
-0.167354
-0.169294
-0.17118
-0.172972
-0.174755
-0.176548
-0.178337
-0.180144
-0.18197
-0.183798
-0.185622
-0.187437
-0.189232
-0.191007
-0.192767
-0.194518
-0.19624
-0.197913
-0.199521
-0.201054
-0.202508
-0.203882
-0.205172
-0.206387
-0.207539
-0.208634
-0.209679
-0.210681
-0.211643
-0.212569
-0.213456
-0.214302
-0.215104
-0.215856
-0.216558
-0.217208
-0.151767
-0.161027
-0.164525
-0.165664
-0.167232
-0.169183
-0.171074
-0.172865
-0.17465
-0.176452
-0.178253
-0.180069
-0.181911
-0.183763
-0.185614
-0.18745
-0.189257
-0.191034
-0.192803
-0.194569
-0.196307
-0.197993
-0.199611
-0.201149
-0.202608
-0.203988
-0.205279
-0.206486
-0.207628
-0.208713
-0.20975
-0.210744
-0.2117
-0.212619
-0.213502
-0.214344
-0.215142
-0.215891
-0.21659
-0.217238
-0.148878
-0.160834
-0.164697
-0.165813
-0.167413
-0.169383
-0.171275
-0.173059
-0.174834
-0.176626
-0.178418
-0.180205
-0.182008
-0.183842
-0.185691
-0.18753
-0.189335
-0.191102
-0.192866
-0.194637
-0.196387
-0.198081
-0.199699
-0.201236
-0.202692
-0.204066
-0.205353
-0.206555
-0.207691
-0.208773
-0.209806
-0.210796
-0.211748
-0.212663
-0.213541
-0.214379
-0.215173
-0.215919
-0.216616
-0.217261
-0.22307
-0.222144
-0.222912
-0.223057
-0.2228
-0.222523
-0.222288
-0.222119
-0.222072
-0.222187
-0.222485
-0.222963
-0.223598
-0.224348
-0.225164
-0.225996
-0.226805
-0.22754
-0.22818
-0.228706
-0.229091
-0.229298
-0.2293
-0.229086
-0.228647
-0.227975
-0.227073
-0.225933
-0.22456
-0.22296
-0.221129
-0.219081
-0.216825
-0.214362
-0.211701
-0.208865
-0.205859
-0.202685
-0.199361
-0.195906
-0.192335
-0.188652
-0.184869
-0.181004
-0.177072
-0.173089
-0.169067
-0.16501
-0.16093
-0.156843
-0.152759
-0.148687
-0.144639
-0.140621
-0.136645
-0.132709
-0.128814
-0.124972
-0.121196
-0.117493
-0.113861
-0.110304
-0.106825
-0.103426
-0.100106
-0.0968688
-0.0937151
-0.0906449
-0.0876578
-0.0847531
-0.0819305
-0.0791899
-0.0765309
-0.0739517
-0.0714504
-0.0690259
-0.0666767
-0.0644015
-0.0621986
-0.0600658
-0.0580013
-0.0560037
-0.0540705
-0.0521996
-0.0503897
-0.048639
-0.0469455
-0.0453067
-0.043721
-0.042187
-0.0407026
-0.0392659
-0.0378752
-0.0365295
-0.0352268
-0.0339648
-0.0327427
-0.0315593
-0.0304126
-0.0293009
-0.028224
-0.0271803
-0.0261678
-0.0251859
-0.024234
-0.0233104
-0.0224135
-0.0215438
-0.0206996
-0.0198791
-0.0190832
-0.0183103
-0.0175589
-0.01683
-0.0161219
-0.0154335
-0.0147657
-0.0141162
-0.013486
-0.0128736
-0.0122764
-0.0116964
-0.0111303
-0.0105768
-0.0100375
-0.00951208
-0.00899933
-0.00849823
-0.00801084
-0.00753761
-0.0070751
-0.00662432
-0.00618667
-0.00576026
-0.00534361
-0.00493732
-0.00454211
-0.00415522
-0.00377636
-0.00340583
-0.00304593
-0.00269852
-0.00236137
-0.00203391
-0.00171575
-0.00140653
-0.00110597
-0.000813859
-0.000529978
-0.000254134
1.3862e-05
0.000274181
0.000526979
0.000772408
0.00101061
0.00124174
0.00146592
0.00168331
0.00189402
0.0020982
0.00229595
0.00248741
0.00267269
0.00285192
0.00302522
0.0031927
0.00335449
0.00351068
0.00366138
0.00380668
0.00394668
0.00408145
0.0042111
0.00433569
0.00445533
0.00457008
0.00468004
0.00478528
0.00488588
0.00498192
0.00507348
0.00516064
0.00524347
0.00532204
0.00539645
0.00546675
0.00553303
0.00559536
0.00565381
0.00570847
0.00575939
0.00580666
0.00585035
0.00589052
0.00592725
0.00596062
0.00599068
0.0060175
0.00604116
0.00606173
0.00607925
0.00609381
0.00610546
0.00611428
0.00612031
0.00612363
0.00612429
0.00612235
0.00611787
0.00611092
0.00610154
0.0060898
0.00607574
0.00605943
0.0060409
0.00602022
0.00599744
0.0059726
0.00594575
0.00591694
0.00588621
0.00585361
0.00581918
0.00578296
0.00574501
0.00570535
0.00566403
0.00562108
0.00557656
0.00553049
0.0054829
0.00543385
0.00538336
0.00533146
0.0052782
0.0052236
0.00516769
0.00511051
0.00505209
0.00499245
0.00493163
0.00486965
0.00480654
0.00474233
0.00467704
0.0046107
0.00454333
0.00447496
0.00440562
0.00433532
0.00426409
0.00419195
0.00411894
0.00404507
0.00397036
0.00389485
0.00381854
0.00374146
0.00366364
0.00358509
0.00350584
0.0034259
0.00334528
0.00326402
0.00318212
0.00309961
0.0030165
0.0029328
0.00284854
0.00276372
0.00267836
0.00259249
0.0025061
0.00241922
0.00233186
0.00224404
0.00215576
0.00206705
0.00197791
0.00188837
0.00179842
0.0017081
0.00161741
0.00152638
0.00143501
0.00134333
0.00125136
0.00115912
0.00106665
0.000973964
0.000881106
0.000788129
0.000695056
0.000601997
0.000508912
0.000416072
0.000323169
0.000230933
0.000138263
4.7011e-05
-0.222661
-0.221828
-0.222088
-0.221964
-0.221664
-0.221517
-0.221428
-0.221395
-0.221462
-0.221659
-0.222014
-0.222526
-0.223178
-0.223936
-0.224754
-0.225585
-0.226389
-0.227116
-0.227747
-0.228262
-0.228634
-0.228829
-0.228822
-0.2286
-0.228155
-0.22748
-0.226578
-0.22544
-0.224072
-0.222479
-0.220658
-0.218622
-0.216378
-0.213929
-0.211285
-0.208465
-0.205477
-0.202322
-0.199018
-0.195582
-0.19203
-0.188367
-0.184604
-0.18076
-0.176848
-0.172884
-0.16888
-0.164841
-0.160781
-0.156711
-0.152645
-0.14859
-0.144559
-0.140553
-0.136593
-0.13267
-0.128791
-0.124964
-0.121203
-0.117516
-0.113898
-0.11035
-0.10688
-0.103488
-0.100175
-0.0969431
-0.0937941
-0.0907281
-0.0877443
-0.0848425
-0.0820223
-0.0792836
-0.0766261
-0.0740478
-0.0715472
-0.0691228
-0.0667733
-0.0644977
-0.0622942
-0.0601605
-0.0580949
-0.0560958
-0.054161
-0.0522884
-0.0504766
-0.048724
-0.0470284
-0.0453875
-0.0437997
-0.0422634
-0.0407766
-0.0393375
-0.0379446
-0.0365966
-0.0352915
-0.0340274
-0.0328031
-0.0316175
-0.0304687
-0.029355
-0.028276
-0.0272303
-0.026216
-0.0252323
-0.0242786
-0.0233531
-0.0224546
-0.021583
-0.020737
-0.0199148
-0.0191169
-0.018342
-0.0175884
-0.0168571
-0.0161465
-0.0154554
-0.0147845
-0.0141321
-0.0134987
-0.0128831
-0.0122841
-0.0117028
-0.0111361
-0.0105844
-0.0100485
-0.00952468
-0.00901285
-0.00851421
-0.00802837
-0.00755469
-0.00709114
-0.00663942
-0.00620129
-0.00577445
-0.00535691
-0.00494986
-0.00455438
-0.00416684
-0.00378695
-0.00341509
-0.00305417
-0.00270648
-0.00236913
-0.00204149
-0.00172317
-0.00141378
-0.00111307
-0.000820811
-0.000536794
-0.000260822
7.29626e-06
0.00026773
0.000520637
0.000766166
0.00100446
0.00123567
0.00145993
0.00167739
0.00188818
0.00209241
0.00229022
0.00248173
0.00266706
0.00284633
0.00301967
0.00318719
0.00334902
0.00350526
0.00365601
0.00380136
0.0039414
0.00407622
0.00420592
0.00433056
0.00445024
0.00456504
0.00467505
0.00478033
0.00488097
0.00497705
0.00506865
0.00515585
0.00523871
0.00531733
0.00539176
0.0054621
0.00552841
0.00559076
0.00564925
0.00570392
0.00575487
0.00580216
0.00584587
0.00588607
0.00592282
0.0059562
0.00598628
0.00601313
0.0060368
0.00605738
0.00607493
0.0060895
0.00610117
0.00611
0.00611605
0.00611939
0.00612006
0.00611814
0.00611369
0.00610675
0.00609739
0.00608567
0.00607163
0.00605534
0.00603684
0.00601618
0.00599342
0.0059686
0.00594178
0.00591299
0.00588229
0.00584971
0.00581531
0.00577912
0.00574119
0.00570156
0.00566027
0.00561735
0.00557286
0.00552681
0.00547926
0.00543024
0.00537978
0.00532791
0.00527468
0.00522011
0.00516423
0.00510708
0.00504869
0.00498909
0.0049283
0.00486635
0.00480327
0.00473909
0.00467384
0.00460752
0.00454019
0.00447185
0.00440253
0.00433226
0.00426105
0.00418895
0.00411596
0.00404212
0.00396744
0.00389195
0.00381567
0.00373862
0.00366083
0.00358231
0.00350308
0.00342316
0.00334258
0.00326135
0.00317948
0.003097
0.00301391
0.00293025
0.00284602
0.00276123
0.00267591
0.00259007
0.00250372
0.00241688
0.00232957
0.00224179
0.00215355
0.00206489
0.0019758
0.00188631
0.00179642
0.00170616
0.00161554
0.00152458
0.00143329
0.0013417
0.00124982
0.00115769
0.00106533
0.000972764
0.000880039
0.000787196
0.000694282
0.000601339
0.000508483
0.000415577
0.000323273
0.00022981
0.000140508
4.09435e-05
-0.222194
-0.221664
-0.221764
-0.22171
-0.221425
-0.221201
-0.221002
-0.220895
-0.220935
-0.221145
-0.221535
-0.222084
-0.222763
-0.223536
-0.22436
-0.225189
-0.225978
-0.226698
-0.22732
-0.227823
-0.228181
-0.228364
-0.228347
-0.228116
-0.227665
-0.226988
-0.226084
-0.224948
-0.223584
-0.221997
-0.220186
-0.21816
-0.215929
-0.213494
-0.210867
-0.208063
-0.205092
-0.201956
-0.198672
-0.195257
-0.191724
-0.188081
-0.18434
-0.180517
-0.176626
-0.172682
-0.168696
-0.164677
-0.160636
-0.156585
-0.152536
-0.148498
-0.144481
-0.140492
-0.136546
-0.132639
-0.128783
-0.124978
-0.121232
-0.117556
-0.113946
-0.110406
-0.106944
-0.103559
-0.100253
-0.0970259
-0.0938814
-0.0908192
-0.0878388
-0.0849399
-0.082122
-0.0793852
-0.0767289
-0.0741514
-0.0716512
-0.0692269
-0.0668771
-0.064601
-0.0623967
-0.060262
-0.0581951
-0.0561945
-0.0542578
-0.0523833
-0.0505696
-0.0488149
-0.0471171
-0.045474
-0.0438837
-0.0423449
-0.0408555
-0.039414
-0.0380186
-0.0366681
-0.0353606
-0.034094
-0.0328674
-0.0316794
-0.0305282
-0.0294123
-0.0283311
-0.0272832
-0.0262669
-0.0252812
-0.0243255
-0.0233982
-0.0224979
-0.0216246
-0.0207768
-0.019953
-0.0191534
-0.0183767
-0.0176215
-0.0168883
-0.0161757
-0.0154826
-0.0148094
-0.0141547
-0.0135184
-0.0128999
-0.0122981
-0.0117136
-0.0111447
-0.0105916
-0.0100544
-0.00953021
-0.00901944
-0.00852374
-0.00803997
-0.00756634
-0.00710465
-0.00665519
-0.00621705
-0.00578965
-0.00537117
-0.00496337
-0.00456764
-0.00417929
-0.00379805
-0.00342461
-0.00306259
-0.00271471
-0.00237721
-0.00204942
-0.00173095
-0.00142141
-0.00112055
-0.000828149
-0.000543997
-0.000267897
3.44118e-07
0.000260896
0.000513913
0.000759545
0.000997938
0.00122923
0.00145357
0.00167111
0.00188196
0.00208627
0.00228414
0.0024757
0.00266107
0.0028404
0.00301378
0.00318135
0.00334323
0.00349952
0.00365031
0.00379572
0.00393581
0.00407069
0.00420044
0.00432514
0.00444488
0.00455973
0.00466979
0.00477512
0.00487581
0.00497194
0.00506359
0.00515083
0.00523374
0.00531239
0.00538687
0.00545724
0.00552358
0.00558598
0.00564449
0.0056992
0.00575018
0.0057975
0.00584123
0.00588145
0.00591823
0.00595164
0.00598174
0.00600861
0.00603231
0.00605291
0.00607048
0.00608507
0.00609676
0.00610561
0.00611169
0.00611504
0.00611574
0.00611384
0.0061094
0.00610249
0.00609315
0.00608145
0.00606744
0.00605117
0.00603269
0.00601206
0.00598933
0.00596454
0.00593774
0.00590898
0.0058783
0.00584576
0.00581139
0.00577523
0.00573733
0.00569773
0.00565647
0.00561358
0.00556912
0.00552311
0.00547559
0.00542659
0.00537617
0.00532433
0.00527113
0.00521659
0.00516075
0.00510364
0.00504528
0.00498571
0.00492495
0.00486304
0.00479999
0.00473584
0.00467062
0.00460434
0.00453703
0.00446872
0.00439943
0.00432919
0.00425802
0.00418594
0.00411298
0.00403917
0.00396452
0.00388905
0.0038128
0.00373578
0.00365802
0.00357952
0.00350033
0.00342044
0.00333989
0.00325868
0.00317685
0.00309439
0.00301134
0.00292771
0.00284351
0.00275876
0.00267348
0.00258767
0.00250136
0.00241456
0.00232729
0.00223955
0.00215136
0.00206275
0.00197371
0.00188427
0.00179445
0.00170425
0.0016137
0.00152281
0.0014316
0.00134009
0.00124831
0.00115628
0.00106403
0.000971586
0.000878992
0.000786281
0.000693524
0.000600697
0.000508066
0.000415099
0.00032339
0.000228784
0.00014269
3.55296e-05
-0.221835
-0.221546
-0.221589
-0.221585
-0.221348
-0.221119
-0.220924
-0.220804
-0.2208
-0.220946
-0.221268
-0.22176
-0.222399
-0.223152
-0.223966
-0.22479
-0.225573
-0.226289
-0.226903
-0.227392
-0.227736
-0.227906
-0.227879
-0.22764
-0.227182
-0.226501
-0.225595
-0.224461
-0.223101
-0.221519
-0.219716
-0.217701
-0.215482
-0.213061
-0.21045
-0.207663
-0.204708
-0.201592
-0.198328
-0.194933
-0.19142
-0.187798
-0.184079
-0.180277
-0.176407
-0.172483
-0.168518
-0.164518
-0.160496
-0.156465
-0.152434
-0.148413
-0.144413
-0.14044
-0.136508
-0.132617
-0.128779
-0.124997
-0.121269
-0.117605
-0.114002
-0.11047
-0.107015
-0.103638
-0.100338
-0.0971149
-0.0939742
-0.090916
-0.0879394
-0.0850437
-0.0822279
-0.0794924
-0.0768372
-0.0742604
-0.0717606
-0.0693364
-0.0669864
-0.0647097
-0.0625045
-0.0603686
-0.0583003
-0.0562979
-0.0543594
-0.0524829
-0.0506673
-0.0489104
-0.0472102
-0.0455647
-0.0439719
-0.0424304
-0.0409384
-0.0394943
-0.0380964
-0.0367433
-0.0354331
-0.0341641
-0.0329349
-0.0317444
-0.0305907
-0.0294723
-0.0283888
-0.0273385
-0.02632
-0.0253323
-0.0243744
-0.0234451
-0.022543
-0.0216678
-0.0208182
-0.0199928
-0.0191914
-0.0184131
-0.0176564
-0.0169215
-0.0162073
-0.0155127
-0.0148377
-0.0141812
-0.013543
-0.0129223
-0.0123182
-0.011731
-0.0111597
-0.0106041
-0.0100642
-0.0095382
-0.00902639
-0.00852955
-0.00804512
-0.00757157
-0.00711223
-0.00666549
-0.00622783
-0.00580077
-0.00538423
-0.00497806
-0.00458219
-0.00419301
-0.00381033
-0.00343469
-0.00307122
-0.00272325
-0.00238568
-0.00205777
-0.00173917
-0.00142949
-0.00112848
-0.000835936
-0.000551649
-0.000275421
-7.05537e-06
0.000253616
0.000506747
0.000752486
0.000990977
0.00122236
0.00144679
0.0016644
0.00187533
0.0020797
0.00227764
0.00246926
0.00265469
0.00283406
0.0030075
0.00317512
0.00333705
0.00349339
0.00364425
0.00378972
0.00392988
0.00406482
0.00419463
0.00431939
0.00443919
0.0045541
0.00466422
0.00476961
0.00487036
0.00496655
0.00505825
0.00514554
0.0052285
0.0053072
0.00538172
0.00545214
0.00551853
0.00558096
0.00563951
0.00569426
0.00574527
0.00579263
0.00583639
0.00587665
0.00591346
0.00594689
0.00597702
0.00600392
0.00602765
0.00604828
0.00606587
0.00608049
0.00609221
0.00610109
0.00610718
0.00611056
0.00611128
0.00610941
0.006105
0.00609811
0.0060888
0.00607713
0.00606314
0.0060469
0.00602845
0.00600785
0.00598515
0.00596039
0.00593362
0.00590489
0.00587425
0.00584173
0.00580739
0.00577127
0.0057334
0.00569384
0.00565261
0.00560976
0.00556533
0.00551935
0.00547186
0.00542291
0.00537251
0.00532071
0.00526755
0.00521305
0.00515724
0.00510016
0.00504183
0.0049823
0.00492158
0.0048597
0.00479669
0.00473257
0.00466738
0.00460114
0.00453386
0.00446559
0.00439633
0.00432612
0.00425498
0.00418293
0.00411
0.00403621
0.00396159
0.00388615
0.00380993
0.00373294
0.0036552
0.00357674
0.00349757
0.00341772
0.0033372
0.00325602
0.00317422
0.0030918
0.00300878
0.00292518
0.00284102
0.0027563
0.00267105
0.00258529
0.00249902
0.00241225
0.00232502
0.00223733
0.00214919
0.00206062
0.00197164
0.00188225
0.00179249
0.00170235
0.00161187
0.00152105
0.00142992
0.0013385
0.00124682
0.00115489
0.00106275
0.000970424
0.000877961
0.000785381
0.00069278
0.000600068
0.000507658
0.000414637
0.000323512
0.000227872
0.000144572
3.07087e-05
-0.221502
-0.221388
-0.221412
-0.221438
-0.221263
-0.221074
-0.220924
-0.22084
-0.220856
-0.221006
-0.221307
-0.221747
-0.222305
-0.222972
-0.223702
-0.224458
-0.225199
-0.225885
-0.226481
-0.226956
-0.227289
-0.227451
-0.227416
-0.22717
-0.226707
-0.226022
-0.225115
-0.223982