/*--------------------------------*- C++ -*----------------------------------*\
| =========                 |                                                 |
| \\      /  F ield         | OpenFOAM: The Open Source CFD Toolbox           |
|  \\    /   O peration     | Version:  2306                                  |
|   \\  /    A nd           | Website:  www.openfoam.com                      |
|    \\/     M anipulation  |                                                 |
\*---------------------------------------------------------------------------*/
FoamFile
{
    version     2.0;
    format      ascii;
    arch        "LSB;label=32;scalar=64";
    class       surfaceScalarField;
    location    "2000";
    object      phi;
}
// * * * * * * * * * * * * * * * * * * * * * * * * * * * * * * * * * * * * * //

dimensions      [0 3 -1 0 0 0 0];

oriented        oriented;

internalField   nonuniform List<scalar> 
50780
(
2.42445e-07
7.55517e-09
2.35508e-07
6.93648e-09
2.28987e-07
6.52124e-09
2.22558e-07
6.42862e-09
2.16225e-07
6.33315e-09
2.10024e-07
6.20163e-09
2.03972e-07
6.05201e-09
1.98078e-07
5.89355e-09
1.92345e-07
5.73293e-09
1.86777e-07
5.56839e-09
1.81383e-07
5.3942e-09
1.76151e-07
5.23166e-09
1.71062e-07
5.08942e-09
1.66125e-07
4.93694e-09
1.61371e-07
4.75395e-09
1.56837e-07
4.53334e-09
1.52534e-07
4.30376e-09
1.48439e-07
4.09469e-09
1.44549e-07
3.88999e-09
1.4089e-07
3.65906e-09
1.37513e-07
3.37707e-09
1.34456e-07
3.05705e-09
1.31727e-07
2.72868e-09
1.29325e-07
2.4023e-09
1.27247e-07
2.07725e-09
1.25488e-07
1.75989e-09
1.24026e-07
1.46184e-09
1.22831e-07
1.19428e-09
1.21867e-07
9.6436e-10
1.21097e-07
7.69655e-10
1.20493e-07
6.04394e-10
1.2003e-07
4.62914e-10
1.19691e-07
3.38801e-10
1.19468e-07
2.23008e-10
1.19359e-07
1.09449e-10
1.19358e-07
6.14813e-13
1.19459e-07
-1.01008e-10
1.19747e-07
-2.87868e-10
1.20148e-07
-4.01049e-10
-1.64742e-09
1.21796e-07
2.51392e-07
6.16322e-09
2.51286e-07
7.04262e-09
2.50836e-07
6.97092e-09
2.50198e-07
7.06691e-09
2.49338e-07
7.19269e-09
2.48281e-07
7.25928e-09
2.47051e-07
7.28151e-09
2.4567e-07
7.27453e-09
2.44151e-07
7.2516e-09
2.42508e-07
7.2114e-09
2.40756e-07
7.14619e-09
2.38922e-07
7.06618e-09
2.37032e-07
6.97951e-09
2.35094e-07
6.87515e-09
2.33105e-07
6.74239e-09
2.31059e-07
6.57923e-09
2.28966e-07
6.39707e-09
2.26856e-07
6.20458e-09
2.24749e-07
5.99725e-09
2.22647e-07
5.76134e-09
2.20545e-07
5.47824e-09
2.18456e-07
5.14688e-09
2.16399e-07
4.78536e-09
2.14392e-07
4.40924e-09
2.12443e-07
4.02575e-09
2.10558e-07
3.64521e-09
2.08749e-07
3.27105e-09
2.07025e-07
2.91868e-09
2.05386e-07
2.6031e-09
2.03834e-07
2.32169e-09
2.02369e-07
2.06957e-09
2.00991e-07
1.8405e-09
1.99702e-07
1.62784e-09
1.98501e-07
1.42425e-09
1.97388e-07
1.22218e-09
1.96376e-07
1.01252e-09
1.95495e-07
7.79602e-10
1.94764e-07
4.43985e-10
1.9434e-07
2.25648e-11
-1.24093e-09
1.93934e-07
2.51317e-07
4.84583e-09
2.51895e-07
6.46504e-09
2.52314e-07
6.55207e-09
2.5262e-07
6.76074e-09
2.52816e-07
6.99629e-09
2.52948e-07
7.1277e-09
2.53035e-07
7.19433e-09
2.53081e-07
7.22857e-09
2.53082e-07
7.25066e-09
2.53037e-07
7.25652e-09
2.52947e-07
7.23565e-09
2.52809e-07
7.20476e-09
2.52618e-07
7.17091e-09
2.52373e-07
7.11952e-09
2.52072e-07
7.04303e-09
2.5171e-07
6.94149e-09
2.51286e-07
6.82108e-09
2.50809e-07
6.68171e-09
2.50284e-07
6.52226e-09
2.49706e-07
6.33897e-09
2.49063e-07
6.12125e-09
2.48345e-07
5.86505e-09
2.47554e-07
5.57662e-09
2.46696e-07
5.26767e-09
2.45774e-07
4.94722e-09
2.44793e-07
4.62672e-09
2.43752e-07
4.31121e-09
2.42665e-07
4.0065e-09
2.41548e-07
3.72016e-09
2.40414e-07
3.45568e-09
2.39272e-07
3.21121e-09
2.38132e-07
2.98032e-09
2.37003e-07
2.75681e-09
2.35894e-07
2.53376e-09
2.34814e-07
2.30198e-09
2.33777e-07
2.04958e-09
2.32804e-07
1.75226e-09
2.3191e-07
1.33761e-09
2.31174e-07
7.59085e-10
-4.5591e-10
2.30389e-07
2.51035e-07
3.81051e-09
2.51709e-07
5.79157e-09
2.52215e-07
6.04564e-09
2.52639e-07
6.33701e-09
2.53014e-07
6.62134e-09
2.53359e-07
6.78257e-09
2.53686e-07
6.86776e-09
2.53995e-07
6.91955e-09
2.54297e-07
6.94829e-09
2.54599e-07
6.95412e-09
2.54874e-07
6.96148e-09
2.55113e-07
6.96517e-09
2.55338e-07
6.94601e-09
2.55549e-07
6.909e-09
2.55741e-07
6.85102e-09
2.55911e-07
6.77152e-09
2.56056e-07
6.67518e-09
2.5618e-07
6.55853e-09
2.56279e-07
6.4229e-09
2.5635e-07
6.26777e-09
2.5639e-07
6.08162e-09
2.56393e-07
5.86175e-09
2.56356e-07
5.61363e-09
2.56277e-07
5.34723e-09
2.56153e-07
5.071e-09
2.55985e-07
4.79448e-09
2.55771e-07
4.52517e-09
2.55509e-07
4.26831e-09
2.55202e-07
4.02697e-09
2.54855e-07
3.80328e-09
2.5447e-07
3.59562e-09
2.54053e-07
3.39817e-09
2.53605e-07
3.20416e-09
2.53134e-07
3.00489e-09
2.52646e-07
2.79046e-09
2.52148e-07
2.54709e-09
2.51654e-07
2.24621e-09
2.51173e-07
1.81909e-09
2.5073e-07
1.20224e-09
8.17748e-11
2.50192e-07
2.50806e-07
3.00459e-09
2.51456e-07
5.1417e-09
2.51969e-07
5.53278e-09
2.52428e-07
5.87716e-09
2.52859e-07
6.19053e-09
2.5327e-07
6.37145e-09
2.53669e-07
6.46951e-09
2.54057e-07
6.53159e-09
2.54436e-07
6.56908e-09
2.54807e-07
6.583e-09
2.55173e-07
6.59524e-09
2.55533e-07
6.6052e-09
2.55884e-07
6.59527e-09
2.56226e-07
6.56694e-09
2.56558e-07
6.51913e-09
2.56878e-07
6.45088e-09
2.57193e-07
6.36039e-09
2.57492e-07
6.25966e-09
2.57767e-07
6.14766e-09
2.58028e-07
6.00743e-09
2.58272e-07
5.8376e-09
2.58495e-07
5.63833e-09
2.58695e-07
5.41427e-09
2.58868e-07
5.17377e-09
2.59015e-07
4.92418e-09
2.59136e-07
4.6734e-09
2.59232e-07
4.42874e-09
2.59305e-07
4.19567e-09
2.59355e-07
3.9771e-09
2.59384e-07
3.77449e-09
2.59393e-07
3.58608e-09
2.59385e-07
3.40667e-09
2.59359e-07
3.22968e-09
2.59318e-07
3.0458e-09
2.59265e-07
2.84373e-09
2.59204e-07
2.60764e-09
2.59142e-07
2.3086e-09
2.59078e-07
1.88324e-09
2.59012e-07
1.26852e-09
2.494e-10
2.58844e-07
2.50605e-07
2.39938e-09
2.51212e-07
4.53499e-09
2.51709e-07
5.03585e-09
2.52178e-07
5.40828e-09
2.52631e-07
5.7371e-09
2.53071e-07
5.9317e-09
2.53501e-07
6.03918e-09
2.53924e-07
6.10862e-09
2.5434e-07
6.15289e-09
2.54749e-07
6.17399e-09
2.55155e-07
6.18939e-09
2.55559e-07
6.20124e-09
2.55958e-07
6.19606e-09
2.56352e-07
6.17332e-09
2.56739e-07
6.13246e-09
2.57117e-07
6.07282e-09
2.57485e-07
5.99243e-09
2.57844e-07
5.9006e-09
2.58193e-07
5.7984e-09
2.58529e-07
5.67134e-09
2.5885e-07
5.51647e-09
2.59154e-07
5.3347e-09
2.59438e-07
5.13025e-09
2.59701e-07
4.91044e-09
2.59943e-07
4.68204e-09
2.60165e-07
4.45194e-09
2.60367e-07
4.22668e-09
2.60551e-07
4.01127e-09
2.6072e-07
3.80846e-09
2.60875e-07
3.6194e-09
2.61019e-07
3.44233e-09
2.61153e-07
3.27239e-09
2.6128e-07
3.10304e-09
2.61401e-07
2.92499e-09
2.61518e-07
2.72625e-09
2.61636e-07
2.48996e-09
2.61756e-07
2.18796e-09
2.61876e-07
1.76362e-09
2.61985e-07
1.15967e-09
2.29332e-10
2.62005e-07
2.50459e-07
1.94083e-09
2.51012e-07
3.98156e-09
2.51483e-07
4.56514e-09
2.51943e-07
4.94842e-09
2.52399e-07
5.28021e-09
2.52849e-07
5.48184e-09
2.53294e-07
5.59447e-09
2.53735e-07
5.66803e-09
2.54171e-07
5.7167e-09
2.54602e-07
5.74312e-09
2.5503e-07
5.76121e-09
2.55457e-07
5.77428e-09
2.55881e-07
5.77227e-09
2.563e-07
5.75372e-09
2.56714e-07
5.71838e-09
2.57121e-07
5.66578e-09
2.57519e-07
5.59445e-09
2.57909e-07
5.51094e-09
2.58291e-07
5.41663e-09
2.58662e-07
5.30048e-09
2.59019e-07
5.15899e-09
2.59361e-07
4.99307e-09
2.59685e-07
4.80642e-09
2.5999e-07
4.60538e-09
2.60276e-07
4.39613e-09
2.60543e-07
4.18481e-09
2.60792e-07
3.97719e-09
2.61026e-07
3.77773e-09
2.61245e-07
3.58887e-09
2.61453e-07
3.41139e-09
2.61652e-07
3.24353e-09
2.61844e-07
3.08064e-09
2.62031e-07
2.91623e-09
2.62214e-07
2.74115e-09
2.62397e-07
2.54327e-09
2.62582e-07
2.30538e-09
2.62769e-07
2.00055e-09
2.62954e-07
1.57887e-09
2.63123e-07
9.90409e-10
1.35679e-10
2.63217e-07
2.50354e-07
1.58699e-09
2.50854e-07
3.48125e-09
2.51298e-07
4.12177e-09
2.51742e-07
4.50443e-09
2.52192e-07
4.82966e-09
2.52642e-07
5.03233e-09
2.5309e-07
5.1462e-09
2.53537e-07
5.22069e-09
2.53983e-07
5.27115e-09
2.54425e-07
5.30064e-09
2.54866e-07
5.32037e-09
2.55306e-07
5.3341e-09
2.55744e-07
5.33434e-09
2.56179e-07
5.31921e-09
2.56608e-07
5.28857e-09
2.57032e-07
5.24209e-09
2.57448e-07
5.17876e-09
2.57856e-07
5.10316e-09
2.58256e-07
5.01651e-09
2.58646e-07
4.91039e-09
2.59023e-07
4.78133e-09
2.59386e-07
4.6302e-09
2.59733e-07
4.46021e-09
2.60061e-07
4.27681e-09
2.60372e-07
4.08558e-09
2.60665e-07
3.89197e-09
2.60941e-07
3.70106e-09
2.61202e-07
3.51676e-09
2.61449e-07
3.34115e-09
2.61686e-07
3.17468e-09
2.61914e-07
3.0155e-09
2.62136e-07
2.85913e-09
2.62353e-07
2.69916e-09
2.62567e-07
2.52661e-09
2.62781e-07
2.32946e-09
2.62996e-07
2.09065e-09
2.63212e-07
1.78478e-09
2.63422e-07
1.36834e-09
2.63614e-07
7.98792e-10
9.65039e-12
2.6374e-07
2.50278e-07
1.30891e-09
2.50725e-07
3.03389e-09
2.51147e-07
3.70045e-09
2.51575e-07
4.07623e-09
2.52016e-07
4.3884e-09
2.52461e-07
4.58762e-09
2.52907e-07
4.69994e-09
2.53355e-07
4.77294e-09
2.53803e-07
4.82301e-09
2.5425e-07
4.85354e-09
2.54697e-07
4.87367e-09
2.55144e-07
4.88729e-09
2.55589e-07
4.8889e-09
2.56032e-07
4.87643e-09
2.56471e-07
4.84977e-09
2.56904e-07
4.80868e-09
2.5733e-07
4.75248e-09
2.57749e-07
4.68433e-09
2.58161e-07
4.60522e-09
2.58562e-07
4.50869e-09
2.58952e-07
4.3915e-09
2.59328e-07
4.25441e-09
2.59688e-07
4.10026e-09
2.60031e-07
3.93369e-09
2.60357e-07
3.75967e-09
2.60666e-07
3.58302e-09
2.60959e-07
3.40818e-09
2.61237e-07
3.23851e-09
2.61502e-07
3.07575e-09
2.61757e-07
2.92003e-09
2.62003e-07
2.76943e-09
2.62243e-07
2.61957e-09
2.62478e-07
2.46415e-09
2.6271e-07
2.29439e-09
2.62941e-07
2.09851e-09
2.63171e-07
1.85996e-09
2.63401e-07
1.55508e-09
2.63623e-07
1.14625e-09
2.63824e-07
5.97869e-10
-1.33222e-10
2.63967e-07
2.50223e-07
1.08609e-09
2.50623e-07
2.63325e-09
2.51025e-07
3.29912e-09
2.51438e-07
3.66269e-09
2.5187e-07
3.95694e-09
2.52308e-07
4.14894e-09
2.52751e-07
4.25766e-09
2.53196e-07
4.32756e-09
2.53643e-07
4.37573e-09
2.54091e-07
4.40582e-09
2.54539e-07
4.42536e-09
2.54989e-07
4.43822e-09
2.55437e-07
4.44041e-09
2.55884e-07
4.42991e-09
2.56327e-07
4.40656e-09
2.56765e-07
4.3702e-09
2.57197e-07
4.32034e-09
2.57622e-07
4.25917e-09
2.5804e-07
4.18741e-09
2.58449e-07
4.1001e-09
2.58846e-07
3.99433e-09
2.5923e-07
3.8707e-09
2.59598e-07
3.73169e-09
2.59951e-07
3.58128e-09
2.60287e-07
3.42382e-09
2.60606e-07
3.26353e-09
2.6091e-07
3.10424e-09
2.612e-07
2.94879e-09
2.61477e-07
2.79859e-09
2.61743e-07
2.6535e-09
2.62001e-07
2.51147e-09
2.62253e-07
2.36826e-09
2.62499e-07
2.21767e-09
2.62742e-07
2.05117e-09
2.62984e-07
1.85733e-09
2.63223e-07
1.62033e-09
2.6346e-07
1.31834e-09
2.63687e-07
9.19106e-10
2.63892e-07
3.93175e-10
-2.85717e-10
2.64044e-07
2.50182e-07
9.03985e-10
2.50543e-07
2.27271e-09
2.50926e-07
2.91603e-09
2.51326e-07
3.26209e-09
2.51748e-07
3.53477e-09
2.52181e-07
3.71627e-09
2.52619e-07
3.81965e-09
2.53061e-07
3.88533e-09
2.53506e-07
3.93062e-09
2.53953e-07
3.95929e-09
2.54401e-07
3.97762e-09
2.5485e-07
3.98931e-09
2.55299e-07
3.99156e-09
2.55746e-07
3.9825e-09
2.56191e-07
3.96192e-09
2.56631e-07
3.92974e-09
2.57066e-07
3.88558e-09
2.57494e-07
3.83095e-09
2.57915e-07
3.76634e-09
2.58327e-07
3.68791e-09
2.58728e-07
3.59312e-09
2.59117e-07
3.48242e-09
2.5949e-07
3.35796e-09
2.59849e-07
3.22312e-09
2.60191e-07
3.08164e-09
2.60517e-07
2.93718e-09
2.60828e-07
2.79299e-09
2.61126e-07
2.65143e-09
2.61411e-07
2.51355e-09
2.61685e-07
2.37898e-09
2.61951e-07
2.24557e-09
2.6221e-07
2.10918e-09
2.62464e-07
1.96375e-09
2.62714e-07
1.80103e-09
2.62962e-07
1.61003e-09
2.63206e-07
1.37578e-09
2.63446e-07
1.07837e-09
2.63675e-07
6.90284e-10
2.63881e-07
1.87569e-10
-4.44586e-10
2.64039e-07
2.50152e-07
7.52038e-10
2.50478e-07
1.94616e-09
2.50845e-07
2.54952e-09
2.51234e-07
2.87273e-09
2.51648e-07
3.12104e-09
2.52075e-07
3.28914e-09
2.52509e-07
3.3856e-09
2.52948e-07
3.44619e-09
2.53391e-07
3.48789e-09
2.53836e-07
3.51452e-09
2.54282e-07
3.53128e-09
2.5473e-07
3.5416e-09
2.55178e-07
3.54363e-09
2.55625e-07
3.53568e-09
2.56069e-07
3.51754e-09
2.5651e-07
3.48915e-09
2.56945e-07
3.45023e-09
2.57374e-07
3.40179e-09
2.57796e-07
3.34414e-09
2.5821e-07
3.27432e-09
2.58613e-07
3.19015e-09
2.59003e-07
3.09194e-09
2.5938e-07
2.98151e-09
2.59741e-07
2.8617e-09
2.60087e-07
2.7357e-09
2.60418e-07
2.6066e-09
2.60734e-07
2.47711e-09
2.61036e-07
2.34913e-09
2.61326e-07
2.22338e-09
2.61606e-07
2.09925e-09
2.61877e-07
1.97451e-09
2.62141e-07
1.84511e-09
2.624e-07
1.70518e-09
2.62654e-07
1.54677e-09
2.62905e-07
1.35938e-09
2.63151e-07
1.129e-09
2.63392e-07
8.37615e-10
2.6362e-07
4.61879e-10
2.63825e-07
-1.73661e-11
-6.07064e-10
2.63988e-07
2.5013e-07
6.22498e-10
2.50428e-07
1.64807e-09
2.50779e-07
2.19787e-09
2.51159e-07
2.49307e-09
2.51565e-07
2.71478e-09
2.51987e-07
2.86696e-09
2.52418e-07
2.95502e-09
2.52854e-07
3.00979e-09
2.53295e-07
3.04736e-09
2.53738e-07
3.07148e-09
2.54183e-07
3.08645e-09
2.54629e-07
3.09538e-09
2.55076e-07
3.09706e-09
2.55521e-07
3.09007e-09
2.55965e-07
3.07417e-09
2.56404e-07
3.04934e-09
2.56839e-07
3.01535e-09
2.57268e-07
2.97288e-09
2.5769e-07
2.9221e-09
2.58104e-07
2.86071e-09
2.58507e-07
2.78687e-09
2.58898e-07
2.70078e-09
2.59276e-07
2.60396e-09
2.59639e-07
2.49874e-09
2.59987e-07
2.38778e-09
2.6032e-07
2.27364e-09
2.60638e-07
2.15851e-09
2.60943e-07
2.04386e-09
2.61237e-07
1.93007e-09
2.6152e-07
1.81632e-09
2.61794e-07
1.70033e-09
2.62061e-07
1.57812e-09
2.62322e-07
1.44401e-09
2.62578e-07
1.29039e-09
2.6283e-07
1.10733e-09
2.63078e-07
8.81826e-10
2.63318e-07
5.97667e-10
2.63544e-07
2.35178e-10
2.63748e-07
-2.20681e-10
-7.71486e-10
2.63912e-07
2.50113e-07
5.09642e-10
2.50387e-07
1.37343e-09
2.50726e-07
1.85932e-09
2.51097e-07
2.12174e-09
2.51497e-07
2.31503e-09
2.51915e-07
2.44916e-09
2.52343e-07
2.52743e-09
2.52777e-07
2.57569e-09
2.53215e-07
2.6087e-09
2.53657e-07
2.62997e-09
2.541e-07
2.64301e-09
2.54545e-07
2.65055e-09
2.5499e-07
2.65186e-09
2.55435e-07
2.64576e-09
2.55877e-07
2.63202e-09
2.56315e-07
2.61063e-09
2.56749e-07
2.58141e-09
2.57177e-07
2.54478e-09
2.57599e-07
2.50083e-09
2.58012e-07
2.44777e-09
2.58414e-07
2.38407e-09
2.58805e-07
2.30983e-09
2.59183e-07
2.22629e-09
2.59547e-07
2.13532e-09
2.59895e-07
2.03906e-09
2.60229e-07
1.93957e-09
2.60549e-07
1.83853e-09
2.60856e-07
1.737e-09
2.61151e-07
1.63506e-09
2.61436e-07
1.53168e-09
2.61712e-07
1.42451e-09
2.6198e-07
1.30967e-09
2.62242e-07
1.18171e-09
2.62499e-07
1.03338e-09
2.62751e-07
8.5533e-10
2.62998e-07
6.35578e-10
2.63236e-07
3.59662e-10
2.6346e-07
1.10793e-11
2.63661e-07
-4.21742e-10
-9.36683e-10
2.63826e-07
2.501e-07
4.0919e-10
2.50356e-07
1.11781e-09
2.50683e-07
1.53207e-09
2.51048e-07
1.75745e-09
2.51442e-07
1.9208e-09
2.51856e-07
2.03511e-09
2.52281e-07
2.10234e-09
2.52713e-07
2.14353e-09
2.5315e-07
2.17159e-09
2.5359e-07
2.18971e-09
2.54033e-07
2.20071e-09
2.54476e-07
2.20689e-09
2.5492e-07
2.20785e-09
2.55364e-07
2.20263e-09
2.55805e-07
2.19104e-09
2.56242e-07
2.17303e-09
2.56675e-07
2.14849e-09
2.57102e-07
2.11766e-09
2.57522e-07
2.08053e-09
2.57934e-07
2.03576e-09
2.58336e-07
1.98208e-09
2.58727e-07
1.91953e-09
2.59104e-07
1.84903e-09
2.59467e-07
1.77205e-09
2.59816e-07
1.69024e-09
2.60151e-07
1.60516e-09
2.60471e-07
1.51802e-09
2.60779e-07
1.42948e-09
2.61074e-07
1.33931e-09
2.6136e-07
1.24631e-09
2.61636e-07
1.14808e-09
2.61905e-07
1.04084e-09
2.62167e-07
9.19362e-10
2.62424e-07
7.76778e-10
2.62675e-07
6.04352e-10
2.62919e-07
3.91127e-10
2.63155e-07
1.24283e-10
2.63376e-07
-2.09933e-10
2.63574e-07
-6.20186e-10
-1.1019e-09
2.63739e-07
2.50091e-07
3.17881e-10
2.50332e-07
8.77274e-10
2.5065e-07
1.21427e-09
2.51008e-07
1.39899e-09
2.51398e-07
1.53116e-09
2.51809e-07
1.62423e-09
2.52232e-07
1.67934e-09
2.52662e-07
1.71292e-09
2.53098e-07
1.73572e-09
2.53537e-07
1.75046e-09
2.53979e-07
1.75933e-09
2.54421e-07
1.76417e-09
2.54864e-07
1.76481e-09
2.55307e-07
1.76049e-09
2.55747e-07
1.75102e-09
2.56183e-07
1.7364e-09
2.56615e-07
1.71649e-09
2.57041e-07
1.69144e-09
2.57461e-07
1.66119e-09
2.57872e-07
1.62471e-09
2.58273e-07
1.58099e-09
2.58663e-07
1.52999e-09
2.59039e-07
1.47238e-09
2.59402e-07
1.40922e-09
2.59751e-07
1.34168e-09
2.60085e-07
1.27085e-09
2.60405e-07
1.19749e-09
2.60713e-07
1.12186e-09
2.61009e-07
1.04345e-09
2.61294e-07
9.60887e-10
2.61571e-07
8.7173e-10
2.61839e-07
7.72313e-10
2.62101e-07
6.57645e-10
2.62356e-07
5.21261e-10
2.62606e-07
3.55049e-10
2.62848e-07
1.49054e-10
2.6308e-07
-1.0802e-10
2.63298e-07
-4.27559e-10
2.63493e-07
-8.1582e-10
-1.26661e-09
2.63658e-07
2.50085e-07
2.33183e-10
2.50314e-07
6.48285e-10
2.50624e-07
9.04052e-10
2.50978e-07
1.04517e-09
2.51364e-07
1.14516e-09
2.51772e-07
1.21588e-09
2.52193e-07
1.25798e-09
2.52623e-07
1.28353e-09
2.53058e-07
1.30082e-09
2.53496e-07
1.31199e-09
2.53937e-07
1.31864e-09
2.54379e-07
1.32218e-09
2.54821e-07
1.32251e-09
2.55263e-07
1.3191e-09
2.55702e-07
1.31178e-09
2.56138e-07
1.30053e-09
2.56569e-07
1.28525e-09
2.56994e-07
1.26598e-09
2.57413e-07
1.24265e-09
2.57823e-07
1.21448e-09
2.58223e-07
1.1807e-09
2.58612e-07
1.14119e-09
2.58988e-07
1.09637e-09
2.59351e-07
1.0469e-09
2.59699e-07
9.93523e-10
2.60033e-07
9.36846e-10
2.60353e-07
8.77198e-10
2.6066e-07
8.14448e-10
2.60956e-07
7.47827e-10
2.61241e-07
6.75791e-10
2.61517e-07
5.95874e-10
2.61785e-07
5.04525e-10
2.62045e-07
3.97004e-10
2.62299e-07
2.67256e-10
2.62547e-07
1.07798e-10
2.62786e-07
-9.03607e-11
2.63015e-07
-3.37101e-10
2.63229e-07
-6.41768e-10
2.63422e-07
-1.00863e-09
-1.43051e-09
2.63586e-07
2.5008e-07
1.53063e-10
2.50301e-07
4.27661e-10
2.50605e-07
5.99516e-10
2.50956e-07
6.94815e-10
2.51339e-07
7.61883e-10
2.51745e-07
8.09441e-10
2.52165e-07
8.37864e-10
2.52594e-07
8.55047e-10
2.53028e-07
8.66627e-10
2.53466e-07
8.7409e-10
2.53906e-07
8.78468e-10
2.54348e-07
8.80699e-10
2.54789e-07
8.80751e-10
2.5523e-07
8.78262e-10
2.55669e-07
8.73104e-10
2.56104e-07
8.6524e-10
2.56535e-07
8.54581e-10
2.5696e-07
8.41114e-10
2.57378e-07
8.24737e-10
2.57787e-07
8.04907e-10
2.58187e-07
7.81049e-10
2.58575e-07
7.52997e-10
2.58951e-07
7.20909e-10
2.59312e-07
6.85077e-10
2.5966e-07
6.45797e-10
2.59994e-07
6.03226e-10
2.60314e-07
5.57265e-10
2.60621e-07
5.07414e-10
2.60916e-07
4.52639e-10
2.612e-07
3.91245e-10
2.61476e-07
3.20747e-10
2.61742e-07
2.37717e-10
2.62002e-07
1.37673e-10
2.62254e-07
1.49805e-11
2.62499e-07
-1.37217e-10
2.62736e-07
-3.26985e-10
2.62961e-07
-5.62915e-10
2.63172e-07
-8.52604e-10
2.63362e-07
-1.19871e-09
-1.59345e-09
2.63525e-07
2.50077e-07
7.58263e-11
2.50292e-07
2.12472e-10
2.50593e-07
2.98772e-10
2.50941e-07
3.4677e-10
2.51323e-07
3.80407e-10
2.51728e-07
4.04283e-10
2.52147e-07
4.18566e-10
2.52575e-07
4.27157e-10
2.53009e-07
4.32904e-10
2.53446e-07
4.36558e-10
2.53886e-07
4.38623e-10
2.54327e-07
4.39559e-10
2.54769e-07
4.39345e-10
2.55209e-07
4.37788e-10
2.55647e-07
4.34798e-10
2.56082e-07
4.30327e-10
2.56513e-07
4.24294e-10
2.56937e-07
4.16639e-10
2.57355e-07
4.0725e-10
2.57764e-07
3.95785e-10
2.58163e-07
3.81856e-10
2.58551e-07
3.65248e-10
2.58926e-07
3.45869e-10
2.59287e-07
3.23646e-10
2.59635e-07
2.98443e-10
2.59968e-07
2.69974e-10
2.60287e-07
2.37715e-10
2.60594e-07
2.00812e-10
2.60889e-07
1.57969e-10
2.61172e-07
1.07353e-10
2.61447e-07
4.64668e-11
2.61712e-07
-2.79899e-11
2.6197e-07
-1.20232e-10
2.62221e-07
-2.35473e-10
2.62464e-07
-3.79951e-10
2.62697e-07
-5.60857e-10
2.6292e-07
-7.85601e-10
2.63128e-07
-1.06027e-09
2.63315e-07
-1.38622e-09
-1.75541e-09
2.63477e-07
2.50076e-07
-1.57674e-14
2.50288e-07
-4.69594e-14
2.50587e-07
-7.97952e-14
2.50934e-07
-1.19963e-13
2.51315e-07
-1.70689e-13
2.51719e-07
-2.36272e-13
2.52138e-07
-3.22399e-13
2.52566e-07
-4.36503e-13
2.52999e-07
-5.88267e-13
2.53437e-07
-7.90166e-13
2.53876e-07
-1.05855e-12
2.54317e-07
-1.4142e-12
2.54758e-07
-1.88402e-12
2.55199e-07
-2.50316e-12
2.55637e-07
-3.31843e-12
2.56072e-07
-4.38872e-12
2.56502e-07
-5.7907e-12
2.56926e-07
-7.62262e-12
2.57343e-07
-1.00019e-11
2.57752e-07
-1.30823e-11
2.58151e-07
-1.70702e-11
2.58538e-07
-2.22291e-11
2.58913e-07
-2.88951e-11
2.59274e-07
-3.75013e-11
2.59621e-07
-4.8612e-11
2.59954e-07
-6.29526e-11
2.60273e-07
-8.14598e-11
2.6058e-07
-1.05342e-10
2.60874e-07
-1.36146e-10
2.61157e-07
-1.7584e-10
2.6143e-07
-2.2692e-10
2.61695e-07
-2.92554e-10
2.61951e-07
-3.76687e-10
2.622e-07
-4.84103e-10
2.6244e-07
-6.20437e-10
2.62672e-07
-7.92048e-10
2.62891e-07
-1.00529e-09
2.63096e-07
-1.26496e-09
2.63281e-07
-1.57136e-09
-1.91638e-09
2.63442e-07
2.50076e-07
-7.58573e-11
2.50288e-07
-2.12565e-10
2.50587e-07
-2.9893e-10
2.50934e-07
-3.47008e-10
2.51315e-07
-3.80746e-10
2.51719e-07
-4.04753e-10
2.52138e-07
-4.19207e-10
2.52566e-07
-4.28027e-10
2.52999e-07
-4.34076e-10
2.53436e-07
-4.38133e-10
2.53876e-07
-4.40733e-10
2.54317e-07
-4.42379e-10
2.54758e-07
-4.43103e-10
2.55199e-07
-4.42781e-10
2.55637e-07
-4.41418e-10
2.56071e-07
-4.39083e-10
2.56501e-07
-4.35848e-10
2.56926e-07
-4.3185e-10
2.57343e-07
-4.2721e-10
2.57752e-07
-4.21893e-10
2.58151e-07
-4.15924e-10
2.58538e-07
-4.09612e-10
2.58913e-07
-4.03539e-10
2.59274e-07
-3.98494e-10
2.5962e-07
-3.95468e-10
2.59953e-07
-3.95621e-10
2.60272e-07
-4.00301e-10
2.60578e-07
-4.11065e-10
2.60871e-07
-4.29708e-10
2.61154e-07
-4.58321e-10
2.61426e-07
-4.99397e-10
2.6169e-07
-5.55963e-10
2.61945e-07
-6.31687e-10
2.62191e-07
-7.30935e-10
2.6243e-07
-8.58743e-10
2.62658e-07
-1.0207e-09
2.62875e-07
-1.2222e-09
2.63077e-07
-1.46692e-09
2.6326e-07
-1.75434e-09
-2.07643e-09
2.6342e-07
2.50077e-07
-1.53094e-10
2.50292e-07
-4.27754e-10
2.50593e-07
-5.99674e-10
2.50941e-07
-6.95052e-10
2.51323e-07
-7.62221e-10
2.51728e-07
-8.09909e-10
2.52147e-07
-8.38502e-10
2.52575e-07
-8.5591e-10
2.53009e-07
-8.67791e-10
2.53446e-07
-8.75654e-10
2.53886e-07
-8.80563e-10
2.54327e-07
-8.83499e-10
2.54769e-07
-8.84481e-10
2.55209e-07
-8.83219e-10
2.55647e-07
-8.79677e-10
2.56082e-07
-8.73934e-10
2.56512e-07
-8.66055e-10
2.56937e-07
-8.56222e-10
2.57354e-07
-8.44564e-10
2.57763e-07
-8.30844e-10
2.58162e-07
-8.14896e-10
2.58549e-07
-7.97078e-10
2.58924e-07
-7.78213e-10
2.59285e-07
-7.59452e-10
2.59632e-07
-7.42211e-10
2.59964e-07
-7.28088e-10
2.60283e-07
-7.18838e-10
2.60588e-07
-7.16366e-10
2.60881e-07
-7.22707e-10
2.61163e-07
-7.40076e-10
2.61434e-07
-7.70951e-10
2.61697e-07
-8.18211e-10
2.6195e-07
-8.8525e-10
2.62195e-07
-9.76005e-10
2.62431e-07
-1.09494e-09
2.62658e-07
-1.24691e-09
2.62872e-07
-1.43645e-09
2.63071e-07
-1.66632e-09
2.63252e-07
-1.93531e-09
-2.23555e-09
2.63411e-07
2.5008e-07
-2.33214e-10
2.50301e-07
-6.48376e-10
2.50605e-07
-9.04206e-10
2.50956e-07
-1.0454e-09
2.51339e-07
-1.1455e-09
2.51745e-07
-1.21634e-09
2.52165e-07
-1.25861e-09
2.52594e-07
-1.28438e-09
2.53028e-07
-1.30197e-09
2.53466e-07
-1.31354e-09
2.53906e-07
-1.32071e-09
2.54348e-07
-1.32494e-09
2.54789e-07
-1.32619e-09
2.5523e-07
-1.32399e-09
2.55669e-07
-1.31827e-09
2.56104e-07
-1.30912e-09
2.56534e-07
-1.29659e-09
2.56959e-07
-1.28092e-09
2.57377e-07
-1.26226e-09
2.57786e-07
-1.24014e-09
2.58185e-07
-1.21418e-09
2.58573e-07
-1.1848e-09
2.58948e-07
-1.15307e-09
2.59309e-07
-1.1205e-09
2.59656e-07
-1.08893e-09
2.59988e-07
-1.06041e-09
2.60306e-07
-1.0371e-09
2.60611e-07
-1.02124e-09
2.60904e-07
-1.01512e-09
2.61185e-07
-1.02107e-09
2.61455e-07
-1.04154e-09
2.61716e-07
-1.07926e-09
2.61968e-07
-1.13734e-09
2.62212e-07
-1.21931e-09
2.62446e-07
-1.32905e-09
2.62669e-07
-1.47076e-09
2.62881e-07
-1.64819e-09
2.63078e-07
-1.8633e-09
2.63257e-07
-2.11434e-09
-2.39372e-09
2.63415e-07
2.50085e-07
-3.17912e-10
2.50314e-07
-8.77364e-10
2.50624e-07
-1.21443e-09
2.50978e-07
-1.39922e-09
2.51364e-07
-1.53149e-09
2.51772e-07
-1.62468e-09
2.52193e-07
-1.67996e-09
2.52623e-07
-1.71375e-09
2.53058e-07
-1.73684e-09
2.53496e-07
-1.75198e-09
2.53937e-07
-1.76136e-09
2.54379e-07
-1.76689e-09
2.54821e-07
-1.76842e-09
2.55262e-07
-1.7653e-09
2.55701e-07
-1.75741e-09
2.56137e-07
-1.74484e-09
2.56568e-07
-1.72764e-09
2.56993e-07
-1.70614e-09
2.57412e-07
-1.68049e-09
2.57821e-07
-1.64997e-09
2.58221e-07
-1.61396e-09
2.58609e-07
-1.57295e-09
2.58984e-07
-1.52824e-09
2.59346e-07
-1.48172e-09
2.59692e-07
-1.43568e-09
2.60025e-07
-1.39259e-09
2.60343e-07
-1.35505e-09
2.60647e-07
-1.32564e-09
2.60939e-07
-1.30688e-09
2.61219e-07
-1.30121e-09
2.61488e-07
-1.31106e-09
2.61748e-07
-1.33901e-09
2.61999e-07
-1.38787e-09
2.6224e-07
-1.46076e-09
2.62472e-07
-1.56101e-09
2.62693e-07
-1.6922e-09
2.62903e-07
-1.85738e-09
2.63097e-07
-2.05782e-09
2.63274e-07
-2.29141e-09
-2.55078e-09
2.63431e-07
2.50091e-07
-4.09219e-10
2.50332e-07
-1.1179e-09
2.5065e-07
-1.53222e-09
2.51008e-07
-1.75767e-09
2.51398e-07
-1.92112e-09
2.51809e-07
-2.03555e-09
2.52232e-07
-2.10294e-09
2.52662e-07
-2.14434e-09
2.53098e-07
-2.17268e-09
2.53537e-07
-2.19119e-09
2.53979e-07
-2.20269e-09
2.54421e-07
-2.20954e-09
2.54864e-07
-2.21138e-09
2.55306e-07
-2.20733e-09
2.55746e-07
-2.19727e-09
2.56183e-07
-2.18129e-09
2.56614e-07
-2.1594e-09
2.5704e-07
-2.13205e-09
2.57459e-07
-2.09944e-09
2.5787e-07
-2.06051e-09
2.5827e-07
-2.01441e-09
2.58659e-07
-1.96164e-09
2.59034e-07
-1.9038e-09
2.59396e-07
-1.84315e-09
2.59743e-07
-1.78244e-09
2.60075e-07
-1.72458e-09
2.60392e-07
-1.67259e-09
2.60696e-07
-1.62941e-09
2.60987e-07
-1.5978e-09
2.61266e-07
-1.5803e-09
2.61534e-07
-1.57931e-09
2.61792e-07
-1.59723e-09
2.62041e-07
-1.63662e-09
2.6228e-07
-1.70016e-09
2.6251e-07
-1.79064e-09
2.62729e-07
-1.91107e-09
2.62935e-07
-2.06388e-09
2.63127e-07
-2.24977e-09
2.63302e-07
-2.46629e-09
-2.70642e-09
2.63458e-07
2.501e-07
-5.09671e-10
2.50356e-07
-1.37351e-09
2.50683e-07
-1.85946e-09
2.51048e-07
-2.12195e-09
2.51442e-07
-2.31533e-09
2.51856e-07
-2.44958e-09
2.52281e-07
-2.52801e-09
2.52713e-07
-2.57648e-09
2.5315e-07
-2.60976e-09
2.5359e-07
-2.6314e-09
2.54033e-07
-2.64493e-09
2.54476e-07
-2.65312e-09
2.5492e-07
-2.65529e-09
2.55363e-07
-2.65033e-09
2.55804e-07
-2.63809e-09
2.56241e-07
-2.61866e-09
2.56674e-07
-2.59203e-09
2.57101e-07
-2.55881e-09
2.5752e-07
-2.51926e-09
2.57932e-07
-2.4719e-09
2.58333e-07
-2.41559e-09
2.58722e-07
-2.35093e-09
2.59098e-07
-2.27975e-09
2.5946e-07
-2.20473e-09
2.59806e-07
-2.12908e-09
2.60138e-07
-2.05618e-09
2.60455e-07
-1.98946e-09
2.60758e-07
-1.93225e-09
2.61048e-07
-1.88753e-09
2.61325e-07
-1.85796e-09
2.61592e-07
-1.84588e-09
2.61848e-07
-1.85353e-09
2.62095e-07
-1.88319e-09
2.62332e-07
-1.9371e-09
2.62558e-07
-2.01754e-09
2.62774e-07
-2.12698e-09
2.62978e-07
-2.26732e-09
2.63167e-07
-2.43874e-09
2.63339e-07
-2.63858e-09
-2.86011e-09
2.63493e-07
2.50113e-07
-6.22525e-10
2.50387e-07
-1.64815e-09
2.50726e-07
-2.198e-09
2.51097e-07
-2.49327e-09
2.51497e-07
-2.71508e-09
2.51915e-07
-2.86737e-09
2.52342e-07
-2.95558e-09
2.52777e-07
-3.01054e-09
2.53215e-07
-3.04838e-09
2.53657e-07
-3.07286e-09
2.541e-07
-3.0883e-09
2.54545e-07
-3.09786e-09
2.5499e-07
-3.10037e-09
2.55434e-07
-3.09448e-09
2.55876e-07
-3.08003e-09
2.56314e-07
-3.0571e-09
2.56748e-07
-3.02563e-09
2.57176e-07
-2.98647e-09
2.57596e-07
-2.93997e-09
2.58009e-07
-2.88412e-09
2.5841e-07
-2.81747e-09
2.588e-07
-2.74068e-09
2.59176e-07
-2.65588e-09
2.59538e-07
-2.56617e-09
2.59884e-07
-2.47525e-09
2.60215e-07
-2.38695e-09
2.6053e-07
-2.30518e-09
2.60832e-07
-2.23362e-09
2.6112e-07
-2.17549e-09
2.61395e-07
-2.13356e-09
2.6166e-07
-2.11012e-09
2.61913e-07
-2.10723e-09
2.62157e-07
-2.12689e-09
2.62391e-07
-2.17092e-09
2.62614e-07
-2.24105e-09
2.62827e-07
-2.3393e-09
2.63026e-07
-2.46705e-09
2.63212e-07
-2.62408e-09
2.63381e-07
-2.80755e-09
-3.01106e-09
2.63532e-07
2.5013e-07
-7.52064e-10
2.50428e-07
-1.94624e-09
2.50779e-07
-2.54965e-09
2.51159e-07
-2.87292e-09
2.51565e-07
-3.12132e-09
2.51987e-07
-3.28953e-09
2.52418e-07
-3.38614e-09
2.52854e-07
-3.44692e-09
2.53295e-07
-3.48887e-09
2.53738e-07
-3.51583e-09
2.54182e-07
-3.53305e-09
2.54629e-07
-3.54398e-09
2.55075e-07
-3.5468e-09
2.5552e-07
-3.53991e-09
2.55964e-07
-3.52317e-09
2.56403e-07
-3.49661e-09
2.56838e-07
-3.46012e-09
2.57266e-07
-3.41489e-09
2.57687e-07
-3.36138e-09
2.581e-07
-3.29692e-09
2.58502e-07
-3.21969e-09
2.58892e-07
-3.13048e-09
2.59268e-07
-3.03168e-09
2.59629e-07
-2.92687e-09
2.59974e-07
-2.82024e-09
2.60303e-07
-2.71614e-09
2.60617e-07
-2.6189e-09
2.60916e-07
-2.53261e-09
2.61201e-07
-2.46074e-09
2.61473e-07
-2.40614e-09
2.61734e-07
-2.37104e-09
2.61984e-07
-2.35733e-09
2.62224e-07
-2.36673e-09
2.62454e-07
-2.40062e-09
2.62673e-07
-2.46019e-09
2.62881e-07
-2.54701e-09
2.63076e-07
-2.66209e-09
2.63257e-07
-2.80478e-09
2.63421e-07
-2.97217e-09
-3.15814e-09
2.63568e-07
2.50152e-07
-9.0401e-10
2.50478e-07
-2.27278e-09
2.50845e-07
-2.91616e-09
2.51234e-07
-3.26228e-09
2.51648e-07
-3.53504e-09
2.52075e-07
-3.71664e-09
2.52509e-07
-3.82016e-09
2.52948e-07
-3.88602e-09
2.53391e-07
-3.93154e-09
2.53836e-07
-3.96054e-09
2.54282e-07
-3.97931e-09
2.5473e-07
-3.99157e-09
2.55177e-07
-3.99458e-09
2.55624e-07
-3.98653e-09
2.56068e-07
-3.9673e-09
2.56508e-07
-3.93687e-09
2.56943e-07
-3.89504e-09
2.57372e-07
-3.8435e-09
2.57793e-07
-3.78286e-09
2.58206e-07
-3.70958e-09
2.58608e-07
-3.62147e-09
2.58997e-07
-3.51944e-09
2.59371e-07
-3.40616e-09
2.5973e-07
-3.28574e-09
2.60073e-07
-3.16292e-09
2.60399e-07
-3.04249e-09
2.6071e-07
-2.92932e-09
2.61005e-07
-2.82787e-09
2.61286e-07
-2.74187e-09
2.61554e-07
-2.67427e-09
2.6181e-07
-2.62721e-09
2.62055e-07
-2.60239e-09
2.6229e-07
-2.60127e-09
2.62514e-07
-2.62477e-09
2.62727e-07
-2.67351e-09
2.62929e-07
-2.74874e-09
2.63118e-07
-2.85102e-09
2.63293e-07
-2.97942e-09
2.63451e-07
-3.13095e-09
-3.2998e-09
2.63593e-07
2.50182e-07
-1.08611e-09
2.50543e-07
-2.63332e-09
2.50926e-07
-3.29923e-09
2.51326e-07
-3.66286e-09
2.51748e-07
-3.95719e-09
2.52181e-07
-4.14929e-09
2.52619e-07
-4.25813e-09
2.53061e-07
-4.3282e-09
2.53506e-07
-4.3766e-09
2.53953e-07
-4.40699e-09
2.544e-07
-4.42695e-09
2.54849e-07
-4.44035e-09
2.55298e-07
-4.44327e-09
2.55745e-07
-4.43373e-09
2.56189e-07
-4.41165e-09
2.56629e-07
-4.37695e-09
2.57064e-07
-4.32931e-09
2.57491e-07
-4.27112e-09
2.57912e-07
-4.20316e-09
2.58323e-07
-4.12075e-09
2.58723e-07
-4.02137e-09
2.59109e-07
-3.90602e-09
2.59481e-07
-3.77772e-09
2.59836e-07
-3.6411e-09
2.60175e-07
-3.50148e-09
2.60496e-07
-3.36417e-09
2.60802e-07
-3.23454e-09
2.61091e-07
-3.11747e-09
2.61366e-07
-3.01692e-09
2.61628e-07
-2.93597e-09
2.61877e-07
-2.87662e-09
2.62115e-07
-2.84042e-09
2.62343e-07
-2.82855e-09
2.62559e-07
-2.84141e-09
2.62765e-07
-2.87908e-09
2.62959e-07
-2.94249e-09
2.6314e-07
-3.03188e-09
2.63306e-07
-3.14599e-09
2.63457e-07
-3.28183e-09
-3.43388e-09
2.63591e-07
2.50223e-07