/*--------------------------------*- C++ -*----------------------------------*\
| =========                 |                                                 |
| \\      /  F ield         | OpenFOAM: The Open Source CFD Toolbox           |
|  \\    /   O peration     | Version:  2306                                  |
|   \\  /    A nd           | Website:  www.openfoam.com                      |
|    \\/     M anipulation  |                                                 |
\*---------------------------------------------------------------------------*/
FoamFile
{
    version     2.0;
    format      ascii;
    arch        "LSB;label=32;scalar=64";
    class       volVectorField;
    location    "2000";
    object      wallShearStress;
}
// * * * * * * * * * * * * * * * * * * * * * * * * * * * * * * * * * * * * * //

dimensions      [0 2 -2 0 0 0 0];

internalField   uniform (0 0 0);

boundaryField
{
    inlet
    {
        type            calculated;
        value           uniform (0 0 0);
    }
    outlet
    {
        type            calculated;
        value           uniform (0 0 0);
    }
    topWall
    {
        type            calculated;
        value           nonuniform List<vector> 
340
(
(-0.00782297 3.46003e-05 0)
(-0.00764805 6.4384e-05 0)
(-0.00743913 7.03617e-05 0)
(-0.00722491 7.27861e-05 0)
(-0.00701855 7.34342e-05 0)
(-0.00681854 7.27828e-05 0)
(-0.00662282 7.13445e-05 0)
(-0.00643156 6.9379e-05 0)
(-0.00624537 6.70528e-05 0)
(-0.00606446 6.44665e-05 0)
(-0.00588895 6.17118e-05 0)
(-0.0057192 5.84158e-05 0)
(-0.00555395 5.47157e-05 0)
(-0.00539324 5.12536e-05 0)
(-0.00523784 4.79714e-05 0)
(-0.00508886 4.44848e-05 0)
(-0.00494773 4.11045e-05 0)
(-0.0048135 3.82345e-05 0)
(-0.00468544 3.57288e-05 0)
(-0.00456411 3.31511e-05 0)
(-0.00445083 3.01372e-05 0)
(-0.0043475 2.67158e-05 0)
(-0.00425458 2.31705e-05 0)
(-0.00417205 1.97028e-05 0)
(-0.00409976 1.60952e-05 0)
(-0.00403775 1.2421e-05 0)
(-0.00398558 9.18676e-06 0)
(-0.00394223 6.52637e-06 0)
(-0.00390645 4.42131e-06 0)
(-0.00387696 2.80585e-06 0)
(-0.0038526 1.59966e-06 0)
(-0.00383235 7.07653e-07 0)
(-0.00381532 9.38871e-08 0)
(-0.0038007 -2.807e-07 0)
(-0.00378781 -5.88125e-07 0)
(-0.00377629 -8.44647e-07 0)
(-0.00376566 -9.18559e-07 0)
(-0.00375549 -8.47546e-07 0)
(-0.00374539 -6.60948e-07 0)
(-0.00373507 -3.91883e-07 0)
(-0.00372433 -7.80188e-08 0)
(-0.00371308 2.44484e-07 0)
(-0.00370133 5.47406e-07 0)
(-0.00368914 8.03429e-07 0)
(-0.00367667 9.99651e-07 0)
(-0.00366406 1.14156e-06 0)
(-0.00365144 1.24127e-06 0)
(-0.00363892 1.31336e-06 0)
(-0.00362654 1.37253e-06 0)
(-0.0036143 1.43595e-06 0)
(-0.00360214 1.52174e-06 0)
(-0.00358993 1.64741e-06 0)
(-0.00357751 1.82829e-06 0)
(-0.00356465 2.0765e-06 0)
(-0.00355111 2.40075e-06 0)
(-0.00353661 2.8064e-06 0)
(-0.00352086 3.29299e-06 0)
(-0.00350361 3.85585e-06 0)
(-0.00348459 4.49183e-06 0)
(-0.00346356 5.19602e-06 0)
(-0.00344029 5.95856e-06 0)
(-0.00341459 6.76936e-06 0)
(-0.00338629 7.61925e-06 0)
(-0.00335529 8.49077e-06 0)
(-0.00332148 9.37246e-06 0)
(-0.00328484 1.02535e-05 0)
(-0.00324534 1.11228e-05 0)
(-0.00320304 1.19644e-05 0)
(-0.00315798 1.27906e-05 0)
(-0.0031103 1.33731e-05 0)
(-0.00306062 1.35632e-05 0)
(-0.0030095 1.36262e-05 0)
(-0.00295715 1.36734e-05 0)
(-0.00290372 1.37215e-05 0)
(-0.00284934 1.37636e-05 0)
(-0.00279416 1.37889e-05 0)
(-0.00273831 1.37875e-05 0)
(-0.00268197 1.37499e-05 0)
(-0.00262533 1.36696e-05 0)
(-0.00256856 1.35472e-05 0)
(-0.00251185 1.34013e-05 0)
(-0.00245538 1.31468e-05 0)
(-0.00239896 1.2811e-05 0)
(-0.00234274 1.25235e-05 0)
(-0.002287 1.22403e-05 0)
(-0.00223203 1.19165e-05 0)
(-0.00217812 1.15351e-05 0)
(-0.00212553 1.10982e-05 0)
(-0.00207451 1.06156e-05 0)
(-0.00202523 1.00984e-05 0)
(-0.00197784 9.55747e-06 0)
(-0.00193245 9.00358e-06 0)
(-0.00188913 8.44576e-06 0)
(-0.00184792 7.89108e-06 0)
(-0.00180883 7.34685e-06 0)
(-0.00177186 6.82101e-06 0)
(-0.00173697 6.31977e-06 0)
(-0.00170408 5.84744e-06 0)
(-0.00167312 5.4109e-06 0)
(-0.00164397 5.01106e-06 0)
(-0.00161655 4.72637e-06 0)
(-0.00159027 4.61843e-06 0)
(-0.00156471 4.60343e-06 0)
(-0.00153982 4.58095e-06 0)
(-0.00151565 4.50474e-06 0)
(-0.00149233 4.3609e-06 0)
(-0.00147002 4.15445e-06 0)
(-0.00144886 3.89972e-06 0)
(-0.00142896 3.60933e-06 0)
(-0.00141039 3.30802e-06 0)
(-0.00139309 3.025e-06 0)
(-0.00137695 2.77226e-06 0)
(-0.00136189 2.53752e-06 0)
(-0.0013479 2.31531e-06 0)
(-0.00133491 2.11462e-06 0)
(-0.00132285 1.93425e-06 0)
(-0.00131166 1.77019e-06 0)
(-0.00130128 1.6184e-06 0)
(-0.00129168 1.47499e-06 0)
(-0.00128281 1.33729e-06 0)
(-0.00127466 1.2044e-06 0)
(-0.0012672 1.07076e-06 0)
(-0.00126043 9.33926e-07 0)
(-0.00125435 8.0213e-07 0)
(-0.00124892 6.81957e-07 0)
(-0.00124409 5.75696e-07 0)
(-0.00123981 4.83488e-07 0)
(-0.00123602 4.03881e-07 0)
(-0.00123268 3.34509e-07 0)
(-0.00122974 2.72589e-07 0)
(-0.00122719 2.1605e-07 0)
(-0.00122498 1.63325e-07 0)
(-0.00122312 1.10133e-07 0)
(-0.00122159 5.69673e-08 0)
(-0.00122039 8.37949e-09 0)
(-0.00121948 -3.45987e-08 0)
(-0.00121884 -7.28361e-08 0)
(-0.00121844 -1.05494e-07 0)
(-0.00121825 -1.30698e-07 0)
(-0.00121823 -1.50723e-07 0)
(-0.00121836 -1.61337e-07 0)
(-0.00121861 -1.67105e-07 0)
(-0.00121898 -1.72939e-07 0)
(-0.00121945 -1.79269e-07 0)
(-0.00122004 -1.87286e-07 0)
(-0.00122073 -1.95052e-07 0)
(-0.00122153 -2.01679e-07 0)
(-0.00122241 -2.08759e-07 0)
(-0.00122339 -2.12983e-07 0)
(-0.00122445 -2.16464e-07 0)
(-0.00122559 -2.19472e-07 0)
(-0.00122678 -2.23507e-07 0)
(-0.00122803 -2.29187e-07 0)
(-0.00122931 -2.35728e-07 0)
(-0.00123064 -2.42094e-07 0)
(-0.00123202 -2.46151e-07 0)
(-0.00123343 -2.49326e-07 0)
(-0.00123488 -2.52581e-07 0)
(-0.00123635 -2.53151e-07 0)
(-0.00123785 -2.5218e-07 0)
(-0.00123936 -2.51246e-07 0)
(-0.00124089 -2.50374e-07 0)
(-0.00124243 -2.48415e-07 0)
(-0.00124397 -2.45932e-07 0)
(-0.00124552 -2.42317e-07 0)
(-0.00124706 -2.38837e-07 0)
(-0.0012486 -2.36664e-07 0)
(-0.00125014 -2.35436e-07 0)
(-0.00125168 -2.34648e-07 0)
(-0.00125323 -2.33822e-07 0)
(-0.00125477 -2.3243e-07 0)
(-0.00125631 -2.30747e-07 0)
(-0.00125784 -2.28528e-07 0)
(-0.00125937 -2.25984e-07 0)
(-0.00126089 -2.2317e-07 0)
(-0.0012624 -2.20281e-07 0)
(-0.0012639 -2.17115e-07 0)
(-0.00126539 -2.13955e-07 0)
(-0.00126686 -2.11293e-07 0)
(-0.00126832 -2.08572e-07 0)
(-0.00126976 -2.05449e-07 0)
(-0.0012712 -2.01695e-07 0)
(-0.00127261 -1.97805e-07 0)
(-0.001274 -1.94349e-07 0)
(-0.00127538 -1.91413e-07 0)
(-0.00127675 -1.8894e-07 0)
(-0.0012781 -1.87076e-07 0)
(-0.00127943 -1.85926e-07 0)
(-0.00128076 -1.85648e-07 0)
(-0.00128208 -1.86111e-07 0)
(-0.0012834 -1.86956e-07 0)
(-0.00128472 -1.87536e-07 0)
(-0.00128603 -1.87705e-07 0)
(-0.00128734 -1.87836e-07 0)
(-0.00128864 -1.88133e-07 0)
(-0.00128994 -1.89113e-07 0)
(-0.00129124 -1.9087e-07 0)
(-0.00129254 -1.92736e-07 0)
(-0.00129385 -1.94149e-07 0)
(-0.00129515 -1.95149e-07 0)
(-0.00129646 -1.96388e-07 0)
(-0.00129776 -1.98362e-07 0)
(-0.00129907 -2.00891e-07 0)
(-0.00130038 -2.0456e-07 0)
(-0.00130171 -2.11107e-07 0)
(-0.00130306 -2.19545e-07 0)
(-0.00130444 -2.27443e-07 0)
(-0.00130584 -2.33871e-07 0)
(-0.00130727 -2.39048e-07 0)
(-0.00130871 -2.43023e-07 0)
(-0.00131017 -2.45993e-07 0)
(-0.00131163 -2.47979e-07 0)
(-0.0013131 -2.48888e-07 0)
(-0.00131457 -2.48634e-07 0)
(-0.00131604 -2.4709e-07 0)
(-0.00131749 -2.44106e-07 0)
(-0.00131894 -2.39672e-07 0)
(-0.00132036 -2.3384e-07 0)
(-0.00132175 -2.26457e-07 0)
(-0.00132311 -2.17469e-07 0)
(-0.00132443 -2.07022e-07 0)
(-0.0013257 -1.95282e-07 0)
(-0.00132693 -1.82404e-07 0)
(-0.00132809 -1.68556e-07 0)
(-0.0013292 -1.5391e-07 0)
(-0.00133024 -1.38634e-07 0)
(-0.00133122 -1.22888e-07 0)
(-0.00133213 -1.06818e-07 0)
(-0.00133297 -9.05611e-08 0)
(-0.00133374 -7.42254e-08 0)
(-0.00133443 -5.81633e-08 0)
(-0.00133505 -4.23432e-08 0)
(-0.0013356 -2.67087e-08 0)
(-0.00133608 -1.13108e-08 0)
(-0.00133649 3.81417e-09 0)
(-0.00133682 1.86398e-08 0)
(-0.00133709 3.31408e-08 0)
(-0.00133728 4.73486e-08 0)
(-0.00133741 6.10249e-08 0)
(-0.00133747 7.48591e-08 0)
(-0.00133746 9.10017e-08 0)
(-0.00133737 1.0903e-07 0)
(-0.00133721 1.24755e-07 0)
(-0.00133698 1.39306e-07 0)
(-0.00133668 1.53166e-07 0)
(-0.00133632 1.66931e-07 0)
(-0.00133589 1.79628e-07 0)
(-0.00133541 1.91372e-07 0)
(-0.00133487 2.02442e-07 0)
(-0.00133427 2.12764e-07 0)
(-0.00133363 2.22405e-07 0)
(-0.00133294 2.30625e-07 0)
(-0.00133221 2.37239e-07 0)
(-0.00133143 2.45247e-07 0)
(-0.00133061 2.53743e-07 0)
(-0.00132975 2.61014e-07 0)
(-0.00132886 2.67565e-07 0)
(-0.00132792 2.73952e-07 0)
(-0.00132695 2.80132e-07 0)
(-0.00132595 2.86139e-07 0)
(-0.00132491 2.91984e-07 0)
(-0.00132383 2.97656e-07 0)
(-0.00132272 3.03134e-07 0)
(-0.00132159 3.08405e-07 0)
(-0.00132042 3.13464e-07 0)
(-0.00131922 3.18311e-07 0)
(-0.00131799 3.22948e-07 0)
(-0.00131674 3.27379e-07 0)
(-0.00131546 3.31607e-07 0)
(-0.00131415 3.35636e-07 0)
(-0.00131282 3.39467e-07 0)
(-0.00131147 3.43082e-07 0)
(-0.00131009 3.46494e-07 0)
(-0.00130869 3.49724e-07 0)
(-0.00130727 3.52784e-07 0)
(-0.00130583 3.55688e-07 0)
(-0.00130437 3.58446e-07 0)
(-0.00130289 3.61072e-07 0)
(-0.00130139 3.63582e-07 0)
(-0.00129987 3.66002e-07 0)
(-0.00129834 3.68364e-07 0)
(-0.00129679 3.70779e-07 0)
(-0.00129523 3.73431e-07 0)
(-0.00129364 3.75971e-07 0)
(-0.00129205 3.78334e-07 0)
(-0.00129043 3.81203e-07 0)
(-0.00128879 3.84949e-07 0)
(-0.00128712 3.89389e-07 0)
(-0.00128543 3.94017e-07 0)
(-0.00128371 3.98344e-07 0)
(-0.00128196 4.02056e-07 0)
(-0.0012802 4.05006e-07 0)
(-0.00127842 4.07179e-07 0)
(-0.00127663 4.08644e-07 0)
(-0.00127482 4.09514e-07 0)
(-0.00127301 4.09915e-07 0)
(-0.00127118 4.0997e-07 0)
(-0.00126935 4.09783e-07 0)
(-0.00126752 4.09436e-07 0)
(-0.00126568 4.08992e-07 0)
(-0.00126384 4.08492e-07 0)
(-0.00126199 4.07964e-07 0)
(-0.00126015 4.07424e-07 0)
(-0.0012583 4.06879e-07 0)
(-0.00125645 4.06333e-07 0)
(-0.00125459 4.05787e-07 0)
(-0.00125274 4.0524e-07 0)
(-0.00125088 4.04692e-07 0)
(-0.00124903 4.04144e-07 0)
(-0.00124717 4.03598e-07 0)
(-0.00124531 4.03058e-07 0)
(-0.00124345 4.02529e-07 0)
(-0.0012416 4.02017e-07 0)
(-0.00123974 4.01529e-07 0)
(-0.00123788 4.01073e-07 0)
(-0.00123602 4.0066e-07 0)
(-0.00123416 4.00299e-07 0)
(-0.0012323 4.00002e-07 0)
(-0.00123043 3.99781e-07 0)
(-0.00122857 3.99651e-07 0)
(-0.0012267 3.99626e-07 0)
(-0.00122484 3.99723e-07 0)
(-0.00122297 3.9996e-07 0)
(-0.0012211 4.00355e-07 0)
(-0.00121922 4.0093e-07 0)
(-0.00121734 4.01709e-07 0)
(-0.00121546 4.02718e-07 0)
(-0.00121357 4.03986e-07 0)
(-0.00121167 4.05547e-07 0)
(-0.00120976 4.0744e-07 0)
(-0.00120785 4.09719e-07 0)
(-0.00120592 4.12425e-07 0)
(-0.00120398 4.15685e-07 0)
(-0.00120202 4.19406e-07 0)
(-0.00120007 4.2416e-07 0)
(-0.00119802 4.28755e-07 0)
(-0.00119615 4.33841e-07 0)
(-0.00119372 4.45455e-07 0)
(-0.00119265 3.59403e-07 0)
(-0.00118895 6.09051e-07 0)
)
;
    }
    bottomWall
    {
        type            calculated;
        value           nonuniform List<vector> 
300
(
(-1.31733e-05 5.11479e-06 0)
(-4.54647e-05 3.95444e-06 0)
(-6.79488e-05 7.46223e-07 0)
(-7.16473e-05 -1.50505e-06 0)
(-6.30351e-05 -2.03756e-06 0)
(-5.23696e-05 -1.21833e-06 0)
(-4.74793e-05 4.8578e-07 0)
(-5.24686e-05 2.12323e-06 0)
(-6.55661e-05 2.87238e-06 0)
(-8.1622e-05 2.56998e-06 0)
(-9.60986e-05 2.85373e-06 0)
(-0.000106365 4.83601e-06 0)
(-0.000113427 6.14148e-06 0)
(-0.000111899 4.25752e-06 0)
(-9.58143e-05 8.50983e-07 0)
(-5.41699e-05 -2.53344e-06 0)
(2.21625e-05 -9.03094e-06 0)
(0.00012451 -1.07313e-05 0)
(0.000236822 -1.48324e-05 0)
(0.000364857 -2.25613e-05 0)
(0.00050221 -2.72999e-05 0)
(0.000635299 -2.78861e-05 0)
(0.000758757 -2.71549e-05 0)
(0.000872216 -2.65779e-05 0)
(0.000976352 -2.63225e-05 0)
(0.00106965 -2.46728e-05 0)
(0.00115069 -2.14522e-05 0)
(0.00122037 -1.83348e-05 0)
(0.00128033 -1.58567e-05 0)
(0.0013319 -1.38059e-05 0)
(0.00137605 -1.20944e-05 0)
(0.00141347 -1.0583e-05 0)
(0.00144475 -9.23936e-06 0)
(0.00147037 -8.15539e-06 0)
(0.00149056 -7.16076e-06 0)
(0.00150544 -6.16683e-06 0)
(0.00151536 -5.1676e-06 0)
(0.00152056 -4.13424e-06 0)
(0.00152116 -3.16694e-06 0)
(0.00151748 -2.29278e-06 0)
(0.00150997 -1.5444e-06 0)
(0.0014989 -7.60121e-07 0)
(0.0014844 1.69565e-09 0)
(0.00146666 7.42238e-07 0)
(0.00144589 1.46598e-06 0)
(0.00142241 2.19879e-06 0)
(0.00139658 2.97552e-06 0)
(0.0013687 3.70163e-06 0)
(0.00133885 4.19815e-06 0)
(0.00130708 4.57712e-06 0)
(0.00127365 4.91794e-06 0)
(0.00123874 5.21483e-06 0)
(0.00120251 5.47343e-06 0)
(0.00116514 5.69381e-06 0)
(0.00112679 5.87745e-06 0)
(0.00108761 6.02486e-06 0)
(0.00104775 6.13624e-06 0)
(0.00100735 6.21227e-06 0)
(0.000966552 6.26444e-06 0)
(0.000925489 6.35099e-06 0)
(0.00088431 6.61e-06 0)
(0.00084282 6.91669e-06 0)
(0.000801234 7.0192e-06 0)
(0.000759749 7.04195e-06 0)
(0.000718441 7.05675e-06 0)
(0.000677385 7.05903e-06 0)
(0.000636649 7.05181e-06 0)
(0.000596293 7.03672e-06 0)
(0.000556372 7.01413e-06 0)
(0.000516942 6.98481e-06 0)
(0.000478059 6.95105e-06 0)
(0.000439768 6.91579e-06 0)
(0.00040211 6.88327e-06 0)
(0.000365114 6.85737e-06 0)
(0.000328813 6.84268e-06 0)
(0.000293234 6.84993e-06 0)
(0.000258404 6.90327e-06 0)
(0.000224316 7.08239e-06 0)
(0.000190963 7.4699e-06 0)
(0.000157185 7.72859e-06 0)
(0.000125637 7.02462e-06 0)
(9.46348e-05 6.97107e-06 0)
(6.43471e-05 7.20405e-06 0)
(3.52099e-05 7.02508e-06 0)
(6.4579e-06 6.69873e-06 0)
(-2.1918e-05 5.57262e-06 0)
(-4.87535e-05 4.70466e-06 0)
(-7.48742e-05 4.56654e-06 0)
(-0.000100307 4.56534e-06 0)
(-0.00012503 4.50296e-06 0)
(-0.000149042 4.55217e-06 0)
(-0.000172446 4.63283e-06 0)
(-0.000195166 4.52281e-06 0)
(-0.000217144 4.29977e-06 0)
(-0.000238424 4.08021e-06 0)
(-0.000259032 3.87507e-06 0)
(-0.000278991 3.68133e-06 0)
(-0.000298321 3.49712e-06 0)
(-0.000317039 3.32171e-06 0)
(-0.000335161 3.1546e-06 0)
(-0.000352705 2.99547e-06 0)
(-0.000369686 2.84398e-06 0)
(-0.000386122 2.6998e-06 0)
(-0.00040203 2.56261e-06 0)
(-0.000417425 2.43212e-06 0)
(-0.000432325 2.30806e-06 0)
(-0.000446745 2.19011e-06 0)
(-0.0004607 2.07803e-06 0)
(-0.000474208 1.97158e-06 0)
(-0.000487282 1.87047e-06 0)
(-0.000499938 1.77448e-06 0)
(-0.000512191 1.68338e-06 0)
(-0.000524055 1.59695e-06 0)
(-0.000535543 1.51496e-06 0)
(-0.000546669 1.43722e-06 0)
(-0.000557448 1.36352e-06 0)
(-0.00056789 1.29365e-06 0)
(-0.000578009 1.22744e-06 0)
(-0.000587816 1.16469e-06 0)
(-0.000597323 1.10524e-06 0)
(-0.000606542 1.04891e-06 0)
(-0.000615483 9.95539e-07 0)
(-0.000624155 9.44984e-07 0)
(-0.00063257 8.97093e-07 0)
(-0.000640737 8.51735e-07 0)
(-0.000648664 8.08784e-07 0)
(-0.000656361 7.68122e-07 0)
(-0.000663837 7.29645e-07 0)
(-0.000671099 6.93254e-07 0)
(-0.000678156 6.58861e-07 0)
(-0.000685016 6.26384e-07 0)
(-0.000691685 5.95754e-07 0)
(-0.000698172 5.66911e-07 0)
(-0.000704484 5.3981e-07 0)
(-0.000710628 5.14428e-07 0)
(-0.000716611 4.90884e-07 0)
(-0.00072244 4.68961e-07 0)
(-0.000728121 4.4858e-07 0)
(-0.000733662 4.29664e-07 0)
(-0.000739069 4.12121e-07 0)
(-0.000744348 3.95843e-07 0)
(-0.000749505 3.80712e-07 0)
(-0.000754545 3.6661e-07 0)
(-0.000759473 3.53429e-07 0)
(-0.000764295 3.41076e-07 0)
(-0.000769013 3.29474e-07 0)
(-0.000773633 3.18562e-07 0)
(-0.000778157 3.08286e-07 0)
(-0.00078259 2.98607e-07 0)
(-0.000786933 2.89483e-07 0)
(-0.000791192 2.80881e-07 0)
(-0.000795368 2.72765e-07 0)
(-0.000799463 2.651e-07 0)
(-0.000803482 2.5785e-07 0)
(-0.000807426 2.50977e-07 0)
(-0.000811297 2.44445e-07 0)
(-0.000815098 2.38216e-07 0)
(-0.000818831 2.32254e-07 0)
(-0.000822496 2.26524e-07 0)
(-0.000826097 2.20994e-07 0)
(-0.000829634 2.15633e-07 0)
(-0.000833108 2.10414e-07 0)
(-0.000836521 2.05313e-07 0)
(-0.000839874 2.0031e-07 0)
(-0.000843168 1.95386e-07 0)
(-0.000846403 1.90528e-07 0)
(-0.000849582 1.85724e-07 0)
(-0.000852703 1.80964e-07 0)
(-0.000855769 1.76241e-07 0)
(-0.000858779 1.71548e-07 0)
(-0.000861734 1.66882e-07 0)
(-0.000864636 1.62238e-07 0)
(-0.000867483 1.57613e-07 0)
(-0.000870278 1.53004e-07 0)
(-0.00087302 1.4841e-07 0)
(-0.00087571 1.43828e-07 0)
(-0.000878348 1.39257e-07 0)
(-0.000880935 1.34695e-07 0)
(-0.000883472 1.30143e-07 0)
(-0.000885958 1.25599e-07 0)
(-0.000888394 1.21064e-07 0)
(-0.00089078 1.16536e-07 0)
(-0.000893117 1.12017e-07 0)
(-0.000895406 1.07507e-07 0)
(-0.000897645 1.03005e-07 0)
(-0.000899837 9.8514e-08 0)
(-0.000901981 9.40339e-08 0)
(-0.000904078 8.95658e-08 0)
(-0.000906128 8.51119e-08 0)
(-0.000908131 8.06731e-08 0)
(-0.000910087 7.62517e-08 0)
(-0.000911998 7.18493e-08 0)
(-0.000913863 6.74683e-08 0)
(-0.000915682 6.31104e-08 0)
(-0.000917457 5.87785e-08 0)
(-0.000919188 5.44742e-08 0)
(-0.000920874 5.02005e-08 0)
(-0.000922516 4.5959e-08 0)
(-0.000924115 4.17529e-08 0)
(-0.000925671 3.75838e-08 0)
(-0.000927185 3.34547e-08 0)
(-0.000928657 2.93672e-08 0)
(-0.000930086 2.53243e-08 0)
(-0.000931475 2.13275e-08 0)
(-0.000932823 1.73797e-08 0)
(-0.00093413 1.34825e-08 0)
(-0.000935398 9.63856e-09 0)
(-0.000936626 5.84935e-09 0)
(-0.000937815 2.11758e-09 0)
(-0.000938966 -1.55556e-09 0)
(-0.000940078 -5.16747e-09 0)
(-0.000941154 -8.71716e-09 0)
(-0.000942192 -1.22023e-08 0)
(-0.000943194 -1.5622e-08 0)
(-0.000944161 -1.89744e-08 0)
(-0.000945091 -2.22588e-08 0)
(-0.000945987 -2.54735e-08 0)
(-0.000946849 -2.86184e-08 0)
(-0.000947677 -3.16918e-08 0)
(-0.000948473 -3.46941e-08 0)
(-0.000949235 -3.76238e-08 0)
(-0.000949965 -4.04815e-08 0)
(-0.000950665 -4.32662e-08 0)
(-0.000951333 -4.59784e-08 0)
(-0.000951971 -4.86175e-08 0)
(-0.000952579 -5.11841e-08 0)
(-0.000953158 -5.36778e-08 0)
(-0.000953708 -5.60994e-08 0)
(-0.000954231 -5.84487e-08 0)
(-0.000954726 -6.07264e-08 0)
(-0.000955194 -6.29321e-08 0)
(-0.000955636 -6.50669e-08 0)
(-0.000956052 -6.71311e-08 0)
(-0.000956443 -6.91262e-08 0)
(-0.000956809 -7.10523e-08 0)
(-0.000957151 -7.2911e-08 0)
(-0.00095747 -7.47034e-08 0)
(-0.000957766 -7.64315e-08 0)
(-0.000958039 -7.80956e-08 0)
(-0.00095829 -7.96974e-08 0)
(-0.00095852 -8.12378e-08 0)
(-0.000958729 -8.27188e-08 0)
(-0.000958918 -8.41419e-08 0)
(-0.000959087 -8.5507e-08 0)
(-0.000959236 -8.68119e-08 0)
(-0.000959366 -8.80905e-08 0)
(-0.000959478 -8.94693e-08 0)
(-0.000959572 -9.08625e-08 0)
(-0.000959649 -9.223e-08 0)
(-0.000959708 -9.35621e-08 0)
(-0.00095975 -9.48527e-08 0)
(-0.000959777 -9.61132e-08 0)
(-0.000959787 -9.74914e-08 0)
(-0.000959781 -9.90515e-08 0)
(-0.000959758 -1.00643e-07 0)
(-0.00095972 -1.0215e-07 0)
(-0.000959665 -1.03512e-07 0)
(-0.000959596 -1.04711e-07 0)
(-0.000959513 -1.05751e-07 0)
(-0.000959417 -1.0665e-07 0)
(-0.000959307 -1.07426e-07 0)
(-0.000959186 -1.08101e-07 0)
(-0.000959053 -1.08692e-07 0)
(-0.000958908 -1.09211e-07 0)
(-0.000958753 -1.09666e-07 0)
(-0.000958588 -1.10063e-07 0)
(-0.000958413 -1.10404e-07 0)
(-0.000958228 -1.10688e-07 0)
(-0.000958034 -1.10915e-07 0)
(-0.000957832 -1.11086e-07 0)
(-0.000957621 -1.11209e-07 0)
(-0.000957403 -1.11214e-07 0)
(-0.000957177 -1.11039e-07 0)
(-0.000956944 -1.10804e-07 0)
(-0.000956705 -1.10487e-07 0)
(-0.00095646 -1.10088e-07 0)
(-0.00095621 -1.09597e-07 0)
(-0.000955955 -1.08994e-07 0)
(-0.000955696 -1.0828e-07 0)
(-0.000955434 -1.07473e-07 0)
(-0.00095517 -1.06548e-07 0)
(-0.000954903 -1.05428e-07 0)
(-0.000954636 -1.04035e-07 0)
(-0.000954369 -1.02285e-07 0)
(-0.000954105 -1.00108e-07 0)
(-0.000953845 -9.74748e-08 0)
(-0.000953591 -9.43498e-08 0)
(-0.000953346 -9.06609e-08 0)
(-0.000953111 -8.62824e-08 0)
(-0.00095289 -8.10413e-08 0)
(-0.000952686 -7.47212e-08 0)
(-0.000952507 -6.68939e-08 0)
(-0.000952353 -5.75378e-08 0)
(-0.000952246 -4.49275e-08 0)
(-0.000952158 -3.17437e-08 0)
(-0.0009522 -1.16764e-08 0)
(-0.000952148 5.97616e-09 0)
(-0.00095259 5.86462e-08 0)
(-0.00095229 -7.28314e-09 0)
(-0.000953552 3.12042e-07 0)
)
;
    }
    stepWall
    {
        type            calculated;
        value           nonuniform List<vector> 
40
(
(-5.881e-06 -8.46739e-06 0)
(-1.33565e-05 -1.57502e-06 0)
(-1.73527e-05 3.89333e-06 0)
(-1.91882e-05 9.55806e-06 0)
(-1.9262e-05 1.57809e-05 0)
(-1.88828e-05 2.20644e-05 0)
(-1.80768e-05 2.80944e-05 0)
(-1.68657e-05 3.37723e-05 0)
(-1.52949e-05 3.89708e-05 0)
(-1.34132e-05 4.36048e-05 0)
(-1.12822e-05 4.75468e-05 0)
(-8.97348e-06 5.07497e-05 0)
(-6.54788e-06 5.31887e-05 0)
(-4.06829e-06 5.48427e-05 0)
(-1.60057e-06 5.56872e-05 0)
(7.69892e-07 5.57237e-05 0)
(3.0524e-06 5.5041e-05 0)
(5.30751e-06 5.37796e-05 0)
(7.5809e-06 5.19342e-05 0)
(9.89195e-06 4.94924e-05 0)
(1.22634e-05 4.64578e-05 0)
(1.47286e-05 4.28316e-05 0)
(1.73315e-05 3.86184e-05 0)
(2.01869e-05 3.3831e-05 0)
(2.37787e-05 2.84663e-05 0)
(2.78644e-05 2.27169e-05 0)
(2.9841e-05 1.6925e-05 0)
(3.19569e-05 1.04651e-05 0)
(3.38393e-05 3.57437e-06 0)
(3.55824e-05 -3.46764e-06 0)
(3.76638e-05 -1.03672e-05 0)
(4.05652e-05 -1.76237e-05 0)
(3.90797e-05 -2.70817e-05 0)
(3.7587e-05 -3.74375e-05 0)
(3.68006e-05 -4.75768e-05 0)
(3.48049e-05 -5.78009e-05 0)
(3.10541e-05 -6.90476e-05 0)
(2.30413e-05 -8.78346e-05 0)
(-8.62799e-06 -0.000154166 0)
(-0.000284229 -0.000723171 0)
)
;
    }
    stepTop
    {
        type            calculated;
        value           nonuniform List<vector> 
40
(
(-0.00782297 -3.46003e-05 0)
(-0.00764805 -6.43839e-05 0)
(-0.00743913 -7.03616e-05 0)
(-0.00722491 -7.27859e-05 0)
(-0.00701855 -7.34339e-05 0)
(-0.00681855 -7.27824e-05 0)
(-0.00662283 -7.13439e-05 0)
(-0.00643157 -6.93781e-05 0)
(-0.00624538 -6.70515e-05 0)
(-0.00606448 -6.44646e-05 0)
(-0.00588897 -6.1709e-05 0)
(-0.00571924 -5.84119e-05 0)
(-0.00555401 -5.47102e-05 0)
(-0.00539332 -5.12458e-05 0)
(-0.00523795 -4.79607e-05 0)
(-0.00508902 -4.44697e-05 0)
(-0.00494795 -4.10835e-05 0)
(-0.00481381 -3.82052e-05 0)
(-0.00468586 -3.56878e-05 0)
(-0.00456469 -3.30947e-05 0)
(-0.00445162 -3.00615e-05 0)
(-0.00434858 -2.66149e-05 0)
(-0.00425602 -2.30386e-05 0)
(-0.00417397 -1.95267e-05 0)
(-0.00410232 -1.58838e-05 0)
(-0.00404107 -1.21786e-05 0)
(-0.00398984 -8.87218e-06 0)
(-0.0039477 -6.11406e-06 0)
(-0.00391349 -3.87657e-06 0)
(-0.00388602 -2.14905e-06 0)
(-0.00386426 -7.46798e-07 0)
(-0.00384736 3.99733e-07 0)
(-0.00383464 1.36606e-06 0)
(-0.00382567 2.34621e-06 0)
(-0.00382036 3.33675e-06 0)
(-0.00381877 4.31403e-06 0)
(-0.00382044 5.08939e-06 0)
(-0.00382524 7.09204e-06 0)
(-0.00384048 6.80201e-06 0)
(-0.00383838 1.9221e-05 0)
)
;
    }
    frontAndBack
    {
        type            empty;
    }
}


// ************************************************************************* //
