/*--------------------------------*- C++ -*----------------------------------*\
| =========                 |                                                 |
| \\      /  F ield         | OpenFOAM: The Open Source CFD Toolbox           |
|  \\    /   O peration     | Version:  2306                                  |
|   \\  /    A nd           | Website:  www.openfoam.com                      |
|    \\/     M anipulation  |                                                 |
\*---------------------------------------------------------------------------*/
FoamFile
{
    version     2.0;
    format      ascii;
    arch        "LSB;label=32;scalar=64";
    class       volScalarField;
    location    "1000";
    object      k;
}
// * * * * * * * * * * * * * * * * * * * * * * * * * * * * * * * * * * * * * //

dimensions      [0 2 -2 0 0 0 0];

internalField   nonuniform List<scalar> 
25600
(
0.00541281
0.00844037
0.0107735
0.012308
0.0131509
0.0134798
0.0134616
0.0132257
0.0128626
0.0124315
0.0119688
0.0114968
0.0110314
0.0105787
0.0101411
0.00972113
0.00932321
0.00895198
0.00860598
0.00828247
0.00798133
0.00770406
0.00745303
0.00722971
0.00703459
0.0068676
0.00672817
0.00661478
0.00652502
0.00645596
0.00640454
0.00636793
0.00634366
0.00632976
0.00632508
0.00632878
0.00634122
0.00636048
0.00639876
0.00641667
0.00376626
0.00380934
0.00385489
0.00389299
0.00391174
0.00390551
0.00387696
0.00383404
0.00378682
0.00374529
0.00371828
0.00371502
0.00373969
0.0037981
0.00389789
0.00404677
0.00426323
0.00452887
0.00481686
0.00512263
0.00543919
0.00573885
0.00601854
0.00628057
0.00652777
0.00676208
0.00698523
0.00719771
0.00740013
0.00759262
0.00777504
0.0079472
0.00810894
0.0082602
0.0084008
0.00853075
0.00864948
0.00875494
0.00885592
0.00890302
0.00372504
0.00366277
0.00358563
0.00349437
0.00339186
0.00328206
0.00316877
0.00305532
0.0029446
0.00283949
0.00274276
0.00265643
0.00258262
0.00252358
0.00248171
0.00245862
0.00245668
0.00247643
0.00251679
0.00257682
0.00265534
0.0027508
0.00286188
0.00298831
0.00313075
0.00329055
0.00347418
0.00366222
0.00384877
0.00403268
0.00421405
0.00439318
0.0045701
0.00474455
0.00491598
0.00508365
0.00524684
0.00540223
0.00555075
0.00567117
0.00372401
0.00367096
0.00361354
0.00355013
0.0034806
0.00340569
0.00332658
0.00324455
0.00316092
0.0030765
0.00299187
0.00290879
0.0028284
0.00275162
0.00267926
0.00261203
0.0025506
0.00249589
0.00244828
0.00240823
0.00237617
0.0023525
0.00233751
0.00233145
0.00233507
0.00234889
0.00237275
0.0024056
0.00244648
0.00249505
0.00255135
0.00261631
0.00268798
0.00276391
0.00284338
0.00292639
0.00301315
0.00310267
0.00319411
0.00327958
0.00372382
0.00367222
0.00362071
0.00356797
0.00351321
0.0034561
0.00339667
0.00333519
0.00327212
0.00320788
0.00314283
0.00307745
0.00301226
0.00294775
0.00288437
0.00282254
0.00276261
0.00270457
0.00264915
0.00259668
0.00254742
0.0025016
0.00245944
0.00242115
0.00238692
0.00235683
0.00233096
0.00230926
0.00229168
0.00227817
0.00226878
0.00226371
0.00226312
0.00226694
0.00227525
0.00228769
0.00230367
0.00232262
0.00234402
0.00236651
0.00372355
0.0036719
0.00362147
0.00357168
0.00352202
0.00347205
0.00342142
0.00336998
0.00331773
0.00326477
0.00321123
0.00315729
0.00310315
0.00304904
0.00299519
0.00294183
0.00288919
0.0028374
0.00278667
0.0027372
0.00268918
0.00264277
0.00259812
0.00255535
0.00251459
0.00247595
0.00243949
0.00240524
0.0023732
0.00234334
0.00231566
0.00229016
0.00226689
0.0022459
0.00222723
0.00221087
0.00219668
0.00218449
0.00217408
0.00216529
0.00372344
0.00367152
0.00362107
0.00357185
0.00352363
0.00347614
0.0034291
0.00338225
0.00333542
0.00328852
0.00324152
0.00319443
0.00314729
0.00310017
0.00305316
0.00300637
0.00295992
0.00291389
0.00286841
0.00282357
0.00277948
0.00273626
0.00269399
0.00265276
0.00261266
0.00257376
0.00253612
0.00249981
0.00246485
0.00243125
0.00239902
0.00236816
0.00233868
0.00231058
0.00228389
0.00225861
0.00223472
0.00221218
0.00219092
0.0021709
0.00372337
0.00367132
0.00362071
0.00357146
0.00352348
0.00347665
0.0034308
0.00338574
0.0033413
0.00329735
0.00325379
0.00321053
0.00316753
0.00312478
0.00308227
0.00304002
0.00299806
0.00295643
0.00291519
0.00287437
0.00283405
0.00279426
0.00275508
0.00271655
0.00267872
0.00264165
0.00260539
0.00256997
0.00253542
0.00250179
0.00246908
0.00243731
0.00240649
0.00237663
0.00234774
0.00231982
0.00229289
0.00226694
0.00224196
0.00221794
0.00372333
0.00367117
0.00362044
0.0035711
0.00352309
0.00347635
0.00343078
0.00338627
0.0033427
0.00329997
0.00325797
0.00321662
0.00317583
0.00313555
0.00309572
0.00305632
0.00301732
0.00297872
0.00294052
0.00290273
0.00286536
0.00282844
0.00279198
0.00275602
0.00272057
0.00268566
0.00265133
0.00261759
0.00258448
0.00255201
0.00252021
0.00248909
0.00245866
0.00242894
0.00239994
0.00237166
0.00234411
0.00231732
0.00229127
0.00226599
0.0037233
0.00367107
0.00362026
0.00357083
0.00352275
0.00347596
0.0034304
0.003386
0.00334268
0.00330036
0.00325896
0.00321842
0.00317865
0.00313959
0.00310119
0.00306339
0.00302614
0.00298942
0.00295319
0.00291744
0.00288215
0.00284732
0.00281294
0.00277901
0.00274554
0.00271254
0.00268001
0.00264796
0.00261642
0.00258538
0.00255487
0.00252489
0.00249545
0.00246656
0.00243824
0.00241049
0.00238332
0.00235674
0.00233077
0.0023054
0.00372328
0.003671
0.00362012
0.00357064
0.00352249
0.00347564
0.00343004
0.00338562
0.00334233
0.0033001
0.00325889
0.00321863
0.00317926
0.00314074
0.003103
0.00306599
0.00302966
0.00299397
0.00295889
0.00292437
0.0028904
0.00285694
0.00282397
0.00279149
0.00275947
0.00272792
0.00269682
0.00266617
0.00263598
0.00260624
0.00257696
0.00254813
0.00251978
0.00249189
0.00246448
0.00243755
0.0024111
0.00238515
0.0023597
0.00233475
0.00372326
0.00367095
0.00362003
0.00357049
0.0035223
0.00347541
0.00342976
0.0033853
0.00334198
0.00329975
0.00325856
0.00321838
0.00317914
0.00314081
0.00310333
0.00306666
0.00303076
0.00299559
0.0029611
0.00292725
0.00289402
0.00286137
0.00282928
0.00279772
0.00276666
0.0027361
0.00270601
0.00267638
0.00264721
0.00261848
0.0025902
0.00256235
0.00253494
0.00250796
0.00248142
0.0024553
0.00242963
0.00240439
0.00237958
0.00235522
0.00372325
0.00367091
0.00361996
0.00357039
0.00352216
0.00347523
0.00342955
0.00338505
0.0033417
0.00329945
0.00325825
0.00321807
0.00317886
0.00314058
0.00310319
0.00306665
0.00303092
0.00299597
0.00296175
0.00292824
0.00289539
0.00286318
0.00283157
0.00280054
0.00277006
0.00274011
0.00271067
0.00268172
0.00265324
0.00262523
0.00259766
0.00257054
0.00254385
0.00251759
0.00249175
0.00246633
0.00244132
0.00241672
0.00239252
0.00236872
0.00372325
0.00367088
0.0036199
0.00357031
0.00352207
0.00347511
0.0034294
0.00338489
0.00334151
0.00329924
0.00325802
0.00321783
0.00317861
0.00314034
0.00310297
0.00306648
0.00303081
0.00299595
0.00296184
0.00292848
0.00289581
0.00286381
0.00283245
0.0028017
0.00277153
0.00274193
0.00271287
0.00268433
0.00265628
0.00262873
0.00260164
0.00257501
0.00254882
0.00252307
0.00249775
0.00247284
0.00244834
0.00242424
0.00240053
0.00237721
0.00372324
0.00367086
0.00361987
0.00357027
0.003522
0.00347504
0.00342932
0.00338479
0.0033414
0.00329912
0.0032579
0.00321769
0.00317847
0.0031402
0.00310284
0.00306635
0.00303071
0.00299587
0.00296181
0.0029285
0.00289591
0.00286401
0.00283276
0.00280215
0.00277215
0.00274273
0.00271387
0.00268556
0.00265776
0.00263048
0.00260368
0.00257735
0.00255149
0.00252607
0.00250109
0.00247653
0.00245238
0.00242864
0.00240529
0.00238232
0.00372324
0.00367085
0.00361985
0.00357024
0.00352198
0.00347501
0.00342929
0.00338476
0.00334137
0.00329909
0.00325787
0.00321767
0.00317845
0.00314018
0.00310282
0.00306633
0.0030307
0.00299587
0.00296184
0.00292855
0.00289599
0.00286413
0.00283293
0.00280239
0.00277246
0.00274313
0.00271437
0.00268618
0.00265851
0.00263137
0.00260474
0.00257859
0.00255291
0.00252769
0.00250292
0.00247858
0.00245466
0.00243115
0.00240804
0.0023853
0.00372324
0.00367085
0.00361985
0.00357024
0.00352198
0.00347501
0.0034293
0.00338478
0.0033414
0.00329913
0.00325792
0.00321772
0.00317851
0.00314025
0.0031029
0.00306642
0.0030308
0.00299598
0.00296195
0.00292868
0.00289613
0.00286429
0.00283311
0.00280259
0.0027727
0.00274341
0.0027147
0.00268656
0.00265897
0.0026319
0.00260535
0.00257929
0.00255372
0.00252861
0.00250396
0.00247974
0.00245596
0.00243259
0.00240962
0.00238703
0.00372324
0.00367085
0.00361985
0.00357025
0.00352199
0.00347504
0.00342934
0.00338483
0.00334147
0.00329921
0.00325801
0.00321783
0.00317864
0.00314038
0.00310304
0.00306658
0.00303096
0.00299615
0.00296213
0.00292886
0.00289632
0.00286449
0.00283333
0.00280282
0.00277294
0.00274367
0.00271498
0.00268686
0.0026593
0.00263227
0.00260575
0.00257974
0.00255422
0.00252917
0.00250457
0.00248043
0.00245671
0.00243342
0.00241052
0.00238802
0.00372324
0.00367085
0.00361986
0.00357026
0.00352202
0.00347508
0.00342939
0.0033849
0.00334155
0.00329931
0.00325812
0.00321795
0.00317876
0.00314052
0.00310319
0.00306673
0.00303112
0.00299632
0.00296231
0.00292905
0.00289651
0.00286468
0.00283352
0.00280302
0.00277315
0.00274388
0.0027152
0.0026871
0.00265954
0.00263253
0.00260603
0.00258004
0.00255453
0.00252951
0.00250494
0.00248082
0.00245714
0.00243388
0.00241102
0.00238855
0.00372324
0.00367085
0.00361987
0.00357028
0.00352204
0.00347511
0.00342943
0.00338494
0.00334161
0.00329937
0.00325819
0.00321803
0.00317885
0.00314061
0.00310328
0.00306683
0.00303122
0.00299643
0.00296242
0.00292916
0.00289663
0.0028648
0.00283364
0.00280314
0.00277327
0.00274401
0.00271533
0.00268723
0.00265968
0.00263267
0.00260617
0.00258018
0.00255469
0.00252967
0.00250511
0.002481
0.00245733
0.00243407
0.00241122
0.00238877
0.00372324
0.00367085
0.00361987
0.00357028
0.00352204
0.00347511
0.00342943
0.00338494
0.00334161
0.00329937
0.00325819
0.00321803
0.00317885
0.00314061
0.00310328
0.00306683
0.00303122
0.00299643
0.00296242
0.00292916
0.00289663
0.0028648
0.00283364
0.00280314
0.00277327
0.002744
0.00271533
0.00268722
0.00265967
0.00263266
0.00260616
0.00258017
0.00255467
0.00252965
0.00250509
0.00248097
0.00245729
0.00243403
0.00241117
0.0023887
0.00372324
0.00367085
0.00361986
0.00357026
0.00352202
0.00347508
0.00342939
0.0033849
0.00334155
0.00329931
0.00325812
0.00321795
0.00317876
0.00314052
0.00310319
0.00306673
0.00303112
0.00299632
0.0029623
0.00292904
0.00289651
0.00286468
0.00283352
0.00280302
0.00277314
0.00274387
0.00271519
0.00268709
0.00265953
0.00263251
0.002606
0.00258
0.00255449
0.00252945
0.00250487
0.00248074
0.00245703
0.00243375
0.00241086
0.00238836
0.00372324
0.00367085
0.00361985
0.00357025
0.00352199
0.00347504
0.00342934
0.00338483
0.00334147
0.00329921
0.00325801
0.00321783
0.00317864
0.00314038
0.00310304
0.00306658
0.00303096
0.00299615
0.00296213
0.00292886
0.00289632
0.00286448
0.00283332
0.00280281
0.00277293
0.00274365
0.00271496
0.00268684
0.00265927
0.00263223
0.00260571
0.00257969
0.00255415
0.00252908
0.00250446
0.00248029
0.00245654
0.0024332
0.00241025
0.0023877
0.00372324
0.00367085
0.00361985
0.00357024
0.00352198
0.00347501
0.0034293
0.00338478
0.0033414
0.00329913
0.00325792
0.00321772
0.00317851
0.00314025
0.0031029
0.00306642
0.00303079
0.00299598
0.00296195
0.00292867
0.00289613
0.00286428
0.00283311
0.00280258
0.00277269
0.00274339
0.00271468
0.00268653
0.00265893
0.00263185
0.00260529
0.00257921
0.00255362
0.00252849
0.0025038
0.00247955
0.00245571
0.00243228
0.00240924
0.00238657
0.00372324
0.00367085
0.00361985
0.00357024
0.00352198
0.00347501
0.00342929
0.00338476
0.00334137
0.00329909
0.00325787
0.00321767
0.00317845
0.00314017
0.00310281
0.00306633
0.0030307
0.00299587
0.00296183
0.00292855
0.00289598
0.00286412
0.00283292
0.00280237
0.00277244
0.0027431
0.00271434
0.00268614
0.00265847
0.00263131
0.00260466
0.00257849
0.00255278
0.00252753
0.00250272
0.00247832
0.00245434
0.00243075
0.00240754
0.00238469
0.00372324
0.00367086
0.00361987
0.00357027
0.003522
0.00347504
0.00342932
0.00338479
0.0033414
0.00329912
0.0032579
0.00321769
0.00317847
0.0031402
0.00310284
0.00306635
0.0030307
0.00299587
0.00296181
0.0029285
0.0028959
0.002864
0.00283275
0.00280214
0.00277213
0.0027427
0.00271384
0.00268551
0.0026577
0.0026304
0.00260358
0.00257723
0.00255133
0.00252587
0.00250083
0.0024762
0.00245197
0.00242812
0.00240465
0.00238153
0.00372325
0.00367088
0.0036199
0.00357031
0.00352207
0.00347511
0.0034294
0.00338489
0.00334151
0.00329924
0.00325802
0.00321783
0.00317861
0.00314034
0.00310297
0.00306647
0.00303081
0.00299594
0.00296184
0.00292847
0.0028958
0.0028638
0.00283243
0.00280168
0.00277151
0.0027419
0.00271283
0.00268427
0.00265621
0.00262863
0.00260152
0.00257486
0.00254863
0.00252283
0.00249743
0.00247244
0.00244783
0.00242359
0.00239972
0.00237621
0.00372325
0.00367091
0.00361996
0.00357039
0.00352216
0.00347523
0.00342955
0.00338505
0.0033417
0.00329945
0.00325825
0.00321807
0.00317885
0.00314057
0.00310318
0.00306665
0.00303092
0.00299597
0.00296175
0.00292823
0.00289538
0.00286317
0.00283156
0.00280052
0.00277003
0.00274007
0.00271062
0.00268165
0.00265315
0.00262512
0.00259752
0.00257036
0.00254362
0.0025173
0.00249137
0.00246584
0.00244069
0.00241592
0.00239152
0.00236747
0.00372326
0.00367095
0.00362003
0.00357049
0.0035223
0.00347541
0.00342976
0.0033853
0.00334198
0.00329975
0.00325856
0.00321838
0.00317914
0.0031408
0.00310333
0.00306666
0.00303076
0.00299558
0.00296109
0.00292724
0.00289401
0.00286136
0.00282926
0.00279769
0.00276663
0.00273605
0.00270595
0.0026763
0.00264711
0.00261835
0.00259003
0.00256213
0.00253466
0.0025076
0.00248095
0.00245471
0.00242886
0.00240341
0.00237835
0.00235367
0.00372328
0.003671
0.00362012
0.00357064
0.00352249
0.00347564
0.00343004
0.00338562
0.00334233
0.0033001
0.00325889
0.00321863
0.00317926
0.00314074
0.00310299
0.00306598
0.00302965
0.00299397
0.00295888
0.00292436
0.00289038
0.00285692
0.00282395
0.00279146
0.00275943
0.00272786
0.00269674
0.00266608
0.00263586
0.00260608
0.00257675
0.00254787
0.00251944
0.00249146
0.00246392
0.00243683
0.00241018
0.00238398
0.00235821
0.00233289
0.0037233
0.00367107
0.00362026
0.00357083
0.00352275
0.00347596
0.0034304
0.003386
0.00334268
0.00330036
0.00325896
0.00321842
0.00317865
0.00313959
0.00310119
0.00306338
0.00302614
0.00298941
0.00295318
0.00291742
0.00288213
0.00284729
0.00281291
0.00277897
0.00274549
0.00271247
0.00267992
0.00264785
0.00261627
0.0025852
0.00255463
0.00252458
0.00249505
0.00246605
0.00243758
0.00240965
0.00238224
0.00235538
0.00232904
0.00230324
0.00372333
0.00367117
0.00362044
0.0035711
0.00352309
0.00347635
0.00343078
0.00338627
0.0033427
0.00329997
0.00325797
0.00321662
0.00317583
0.00313554
0.00309571
0.00305631
0.00301731
0.00297871
0.00294051
0.00290271
0.00286534
0.00282841
0.00279195
0.00275597
0.0027205
0.00268558
0.00265122
0.00261746
0.00258431
0.00255179
0.00251992
0.00248872
0.00245819
0.00242834
0.00239917
0.00237069
0.0023429
0.00231579
0.00228938
0.00226364
0.00372337
0.00367132
0.00362071
0.00357146
0.00352348
0.00347665
0.0034308
0.00338574
0.0033413
0.00329735
0.00325379
0.00321053
0.00316753
0.00312478
0.00308227
0.00304001
0.00299805
0.00295642
0.00291517
0.00287436
0.00283402
0.00279423
0.00275504
0.00271649
0.00267865
0.00264156
0.00260526
0.0025698
0.00253522
0.00250153
0.00246875
0.00243689
0.00240596
0.00237596
0.00234689
0.00231878
0.0022916
0.00226537
0.00224007
0.00221569
0.00372344
0.00367152
0.00362107
0.00357185
0.00352363
0.00347614
0.0034291
0.00338225
0.00333542
0.00328852
0.00324152
0.00319443
0.00314729
0.00310017
0.00305316
0.00300637
0.00295991
0.00291388
0.00286839
0.00282355
0.00277945
0.00273622
0.00269393
0.00265269
0.00261257
0.00257364
0.00253598
0.00249962
0.00246461
0.00243095
0.00239864
0.00236769
0.00233811
0.00230988
0.00228305
0.00225762
0.00223359
0.00221092
0.00218959
0.00216959
0.00372355
0.0036719
0.00362147
0.00357168
0.00352202
0.00347205
0.00342142
0.00336998
0.00331773
0.00326477
0.00321123
0.00315728
0.00310315
0.00304904
0.00299519
0.00294183
0.00288918
0.00283738
0.00278664
0.00273717
0.00268914
0.00264272
0.00259805
0.00255526
0.00251448
0.00247581
0.00243932
0.00240503
0.00237294
0.00234303
0.00231529
0.00228974
0.00226643
0.00224543
0.00222681
0.00221057
0.00219666
0.00218501
0.00217563
0.00216859
0.00372382
0.00367222
0.00362071
0.00356797
0.00351321
0.0034561
0.00339667
0.00333519
0.00327212
0.00320788
0.00314283
0.00307745
0.00301226
0.00294775
0.00288436
0.00282253
0.00276259
0.00270454
0.00264911
0.00259664
0.00254737
0.00250154
0.00245936
0.00242105
0.0023868
0.0023567
0.00233082
0.00230912
0.00229156
0.00227812
0.00226887
0.00226405
0.00226389
0.00226836
0.00227767
0.00229159
0.00230978
0.00233215
0.00235888
0.00239032
0.00372401
0.00367096
0.00361354
0.00355013
0.0034806
0.00340569
0.00332658
0.00324455
0.00316092
0.0030765
0.00299186
0.00290878
0.00282839
0.00275161
0.00267925
0.00261201
0.00255058
0.00249587
0.00244824
0.00240819
0.00237613
0.00235247
0.0023375
0.00233148
0.00233519
0.00234915
0.00237322
0.0024064
0.00244776
0.00249707
0.00255446
0.00262111
0.0026948
0.00277349
0.00285679
0.00294526
0.00303963
0.00314032
0.00324734
0.00336092
0.00372504
0.00366277
0.00358563
0.00349437
0.00339186
0.00328206
0.00316877
0.00305531
0.00294459
0.00283949
0.00274276
0.00265643
0.00258261
0.00252357
0.00248171
0.00245862
0.0024567
0.00247647
0.00251688
0.00257698
0.00265561
0.00275122
0.00286253
0.0029893
0.00313219
0.0032927
0.00347715
0.00366631
0.00385427
0.00404002
0.00422381
0.00440611
0.00458721
0.00476713
0.00494566
0.00512253
0.00529755
0.00547047
0.00564111
0.00580909
0.00376626
0.00380934
0.00385489
0.00389299
0.00391175
0.00390552
0.00387696
0.00383405
0.00378682
0.0037453
0.0037183
0.00371504
0.00373972
0.00379815
0.00389796
0.00404688
0.00426341
0.0045291
0.00481718
0.00512304
0.00543971
0.00573949
0.00601933
0.00628156
0.00652898
0.00676356
0.00698702
0.00719982
0.00740261
0.00759551
0.00777837
0.007951
0.00811323
0.0082649
0.00840605
0.00853659
0.00865651
0.00876593
0.0088651
0.00895382
0.00541281
0.00844037
0.0107735
0.012308
0.0131509
0.0134798
0.0134616
0.0132257
0.0128626
0.0124314
0.0119688
0.0114967
0.0110313
0.0105786
0.0101409
0.00972088
0.00932286
0.00895149
0.00860529
0.00828151
0.00798
0.00770224
0.00745055
0.00722639
0.00703015
0.00686176
0.00672061
0.00660505
0.00651253
0.00643992
0.00638393
0.00634143
0.00630955
0.00628578
0.00626787
0.00625425
0.0062435
0.00623434
0.00622563
0.0062164
0.00660947
0.00889444
0.0132733
0.0182955
0.0225287
0.025549
0.0276264
0.0291382
0.0303186
0.0312713
0.0320453
0.0326751
0.0331891
0.0336106
0.0339606
0.0342587
0.0345229
0.0347696
0.0350123
0.0352609
0.0355235
0.0358064
0.0361122
0.0364389
0.0367803
0.0371284
0.0374743
0.0378097
0.0381267
0.038419
0.0386809
0.0389088
0.0390995
0.0392512
0.0393632
0.0394362
0.0394699
0.039465
0.0394237
0.0393488
0.0392411
0.0391017
0.0389331
0.0387386
0.038521
0.0382832
0.0380249
0.0377478
0.0374548
0.0371485
0.0368313
0.036505
0.0361717
0.035832
0.0354862
0.0351357
0.0347826
0.0344305
0.0340807
0.0337331
0.033388
0.0330458
0.0327073
0.0323728
0.0320431
0.0317183
0.0313989
0.031085
0.0307771
0.0304755
0.0301803
0.0298919
0.0296103
0.0293357
0.0290682
0.0288079
0.0285548
0.028309
0.0280705
0.0278393
0.0276153
0.0273984
0.0271885
0.0269854
0.0267889
0.0265989
0.026415
0.026237
0.0260645
0.0258971
0.0257344
0.0255759
0.0254211
0.0252694
0.0251203
0.0249732
0.0248274
0.0246823
0.0245373
0.0243917
0.0242449
0.0240963
0.0239454
0.0237916
0.0236341
0.0234726
0.0233063
0.0231349
0.0229577
0.0227743
0.0225846
0.022389
0.0221888
0.0219851
0.0217788
0.0215707
0.0213608
0.0211492
0.0209361
0.0207217
0.020506
0.0202893
0.0200717
0.0198532
0.0196338
0.0194136
0.019193
0.018972
0.0187505
0.0185286
0.0183063
0.018084
0.0178618
0.0176401
0.0174192
0.0171993
0.0169807
0.0167636
0.0165482
0.0163347
0.0161232
0.0159139
0.0157068
0.015502
0.0152997
0.0150999
0.0149026
0.0147078
0.0145157
0.0143263
0.0141395
0.0139553
0.0137739
0.0135951
0.0134189
0.0132453
0.0130744
0.0129061
0.0127402
0.0125769
0.0124161
0.0122577
0.0121016
0.0119478
0.0117963
0.011647
0.0114998
0.0113547
0.0112115
0.0110703
0.0109309
0.0107934
0.0106576
0.0105235
0.010391
0.0102601
0.0101307
0.0100027
0.00987607
0.00975074
0.00962665
0.00950377
0.00938207
0.00926157
0.00914229
0.00902423
0.00890747
0.00879208
0.00867812
0.0085658
0.0084554
0.00834728
0.00824189
0.00814003
0.00804286
0.00795205
0.00786987
0.00779956
0.00774534
0.00771214
0.00770503
0.00772797
0.00778227
0.00786511
0.00796901
0.00808265
0.00819303
0.00828804
0.00835841
0.00839859
0.00840653
0.00838291
0.00833021
0.00825184
0.00815153
0.00803291
0.00789924
0.0077533
0.00759741
0.00743344
0.00726291
0.00708711
0.00690716
0.00672407
0.00653881
0.00635227
0.00616533
0.0059787
0.00579282
0.00560742
0.00542116
0.00523159
0.00503755
0.00484212
0.00465577
0.00449409
0.00436683
0.00427099
0.00419634
0.00413366
0.00407642
0.004021
0.00396592
0.00391112
0.00385721
0.00380498
0.00375507
0.00370797
0.00366398
0.00362322
0.00358566
0.00355116
0.00351949
0.00349036
0.00346345
0.00343843
0.00341495
0.0033927
0.00337136
0.00335068
0.0033304
0.00331032
0.00329026
0.00327007
0.00324965
0.00322891
0.0032078
0.00318626
0.0031643
0.00314189
0.00311904
0.00309578
0.00307213
0.0030481
0.00302374
0.00299907
0.00297412
0.00294893
0.00292354
0.00289796
0.00287224
0.00284641
0.00282049
0.00279451
0.0027685
0.00274249
0.00271649
0.00269054
0.00266467
0.00263888
0.00261321
0.00258768
0.00256231
0.00253712
0.00251213
0.00248735
0.00246286
0.00243829
0.00241604
0.002381
0.00907099
0.00962685
0.0107367
0.0125341
0.0149758
0.0177707
0.0205275
0.0229584
0.0249595
0.0265643
0.0278562
0.0289083
0.0297696
0.0304742
0.0310517
0.0315295
0.0319321
0.0322805
0.032592
0.0328805
0.033158
0.033435
0.0337183
0.0340112
0.0343129
0.0346197
0.0349259
0.0352251
0.0355108
0.0357769
0.0360181
0.0362302
0.03641
0.036555
0.0366641
0.0367369
0.0367736
0.0367744
0.0367408
0.0366748
0.036578
0.0364516
0.0362975
0.0361186
0.0359174
0.0356969
0.0354579
0.0352017
0.0349306
0.034647
0.0343532
0.034051
0.0337426
0.0334291
0.0331107
0.0327886
0.0324648
0.0321417
0.0318206
0.0315015
0.0311837
0.0308685
0.0305569
0.0302497
0.0299474
0.0296503
0.0293586
0.0290728
0.0287932
0.02852
0.0282535
0.0279938
0.027741
0.0274952
0.0272564
0.0270249
0.0268007
0.0265837
0.026374
0.0261716
0.0259763
0.025788
0.0256068
0.0254324
0.0252647
0.0251035
0.0249486
0.0247996
0.0246563
0.0245183
0.0243852
0.0242565
0.0241319
0.0240106
0.0238922
0.023776
0.0236615
0.0235481
0.0234349
0.0233215
0.0232073
0.0230915
0.0229737
0.0228531
0.0227291
0.0226012
0.0224687
0.0223312
0.0221882
0.0220389
0.0218828
0.0217197
0.0215498
0.0213738
0.0211932
0.0210085
0.0208207
0.0206306
0.0204381
0.0202436
0.0200471
0.0198487
0.0196487
0.019447
0.0192437
0.019039
0.0188331
0.0186261
0.0184178
0.0182084
0.017998
0.0177868
0.0175752
0.0173634
0.0171519
0.0169408
0.0167304
0.016521
0.0163128
0.016106
0.0159007
0.0156972
0.0154955
0.0152957
0.015098
0.0149025
0.0147092
0.0145181
0.0143294
0.0141431
0.0139592
0.0137778
0.0135988
0.0134222
0.0132481
0.0130765
0.0129073
0.0127406
0.0125762
0.0124142
0.0122546
0.0120972
0.0119421
0.0117893
0.0116385
0.0114899
0.0113433
0.0111987
0.011056
0.0109151
0.0107761
0.0106387
0.0105031
0.0103691
0.0102366
0.0101057
0.0099762
0.00984809
0.0097213
0.0095958
0.00947153
0.00934847
0.0092266
0.00910592
0.00898643
0.00886815
0.00875112
0.00863538
0.00852099
0.00840811
0.00829693
0.00818765
0.0080806
0.0079764
0.00787589
0.00778028
0.00769151
0.00761232
0.00754643
0.00749823
0.00747277
0.00747465
0.00750663
0.00756818
0.00765449
0.00775657
0.00786277
0.00796102
0.00804096
0.00809525
0.00811987
0.00811377
0.00807812
0.0080155
0.00792925
0.00782288
0.00769976
0.00756289
0.00741481
0.00725763
0.0070931
0.00692271
0.00674771
0.00656925
0.00638837
0.00620597
0.00602284
0.00583946
0.00565589
0.00547137
0.00528442
0.00509402
0.00490304
0.00471981
0.00455703
0.00442464
0.00432302
0.00424457
0.00418106
0.00412544
0.00407278
0.00402038
0.00396732
0.00391386
0.00386081
0.00380907
0.00375943
0.00371246
0.00366852
0.00362779
0.00359028
0.00355587
0.00352435
0.00349543
0.00346881
0.00344413
0.00342107
0.00339928
0.00337848
0.00335836
0.0033387
0.00331927
0.00329989
0.00328041
0.00326072
0.00324072
0.00322036
0.00319958
0.00317837
0.00315671
0.00313462
0.00311209
0.00308915
0.00306581
0.00304212
0.00301809
0.00299375
0.00296915
0.00294429
0.00291923
0.00289398
0.00286857
0.00284304
0.00281741
0.0027917
0.00276595
0.00274018
0.00271441
0.00268866
0.00266297
0.00263735
0.00261183
0.00258642
0.00256116
0.00253606
0.00251113
0.00248646
0.00246168
0.0024392
0.00240372
0.00581437
0.00600726
0.0062932
0.00676869
0.00755228
0.0087457
0.0103897
0.0124255
0.0146998
0.0170152
0.0191948
0.021127
0.0227745
0.0241533
0.0253025
0.0262622
0.0270661
0.0277442
0.0283229
0.0288249
0.0292701
0.0296752
0.0300535
0.0304144
0.030764
0.0311048
0.0314361
0.0317554
0.0320591
0.0323429
0.0326029
0.0328354
0.0330376
0.0332072
0.0333428
0.0334437
0.0335098
0.0335417
0.0335401
0.0335065
0.0334428
0.0333503
0.033231
0.0330871
0.0329211
0.0327358
0.0325326
0.0323131
0.0320792
0.0318329
0.0315765
0.0313118
0.0310408
0.030765
0.0304851
0.0302019
0.0299168
0.0296283
0.0293405
0.0290538
0.028768
0.0284851
0.028206
0.0279312
0.0276609
0.0273957
0.027136
0.0268823
0.026635
0.0263941
0.0261598
0.0259322
0.0257113
0.0254973
0.0252903
0.0250904
0.0248976
0.024712
0.0245334
0.0243618
0.0241972
0.0240395
0.0238887
0.0237446
0.0236072
0.0234762
0.0233514
0.0232326
0.0231194
0.0230117
0.0229091
0.022811
0.0227172
0.022627
0.0225399
0.0224554
0.0223729
0.0222917
0.0222112
0.0221308
0.0220499
0.0219678
0.0218838
0.0217973
0.0217076
0.0216141
0.0215163
0.0214137
0.0213057
0.0211919
0.0210714
0.0209438
0.0208086
0.0206659
0.0205165
0.0203603
0.0201989
0.0200328
0.0198629
0.01969
0.0195144
0.0193361
0.0191554
0.0189723
0.0187868
0.0185993
0.0184098
0.0182185
0.0180253
0.0178301
0.0176332
0.0174348
0.0172354
0.0170351
0.0168344
0.0166335
0.0164327
0.0162323
0.0160325
0.0158335
0.0156355
0.0154388
0.0152435
0.0150497
0.0148575
0.0146672
0.0144786
0.0142921
0.0141075
0.0139251
0.0137447
0.0135666
0.0133907
0.013217
0.0130455
0.0128763
0.0127094
0.0125447
0.0123823
0.0122221
0.0120641
0.0119083
0.0117546
0.011603
0.0114534
0.0113058
0.0111602
0.0110165
0.0108746
0.0107344
0.010596
0.0104593
0.0103241
0.0101906
0.0100585
0.00992788
0.00979868
0.00967083
0.00954428
0.00941901
0.00929496
0.00917211
0.00905046
0.00892999
0.00881069
0.00869257
0.00857566
0.00845997
0.00834557
0.00823257
0.00812107
0.00801124
0.00790332
0.0077977
0.00769495
0.00759594
0.00750223
0.00741597
0.00734014
0.00727874
0.00723655
0.00721848
0.00722816
0.00726692
0.00733253
0.00741861
0.00751554
0.00761214
0.00769764
0.00776332
0.00780329
0.00781459
0.00779678
0.00775132
0.00768086
0.00758862
0.00747793
0.0073519
0.00721329
0.00706441
0.00690722
0.00674335
0.0065742
0.00640096
0.0062247
0.00604626
0.00586633
0.00568521
0.00550274
0.00531838
0.00513191
0.00494583
0.00476735
0.00460655
0.00447207
0.00436582
0.00428297
0.00421729
0.00416245
0.00411285
0.00406448
0.00401519
0.0039644
0.00391255
0.00386059
0.00380955
0.0037603
0.00371352
0.00366965
0.00362893
0.00359142
0.00355703
0.00352557
0.00349678
0.00347034
0.00344593
0.0034232
0.00340181
0.00338147
0.00336189
0.00334281
0.00332401
0.0033053
0.00328653
0.00326758
0.00324834
0.00322876
0.00320878
0.00318838
0.00316753
0.00314623
0.0031245
0.00310234
0.00307977
0.00305682
0.00303351
0.00300987
0.00298593
0.00296171
0.00293724
0.00291255
0.00288767
0.00286262
0.00283743
0.00281212
0.00278673
0.00276127
0.00273577
0.00271025
0.00268474
0.00265927
0.00263384
0.0026085
0.00258325
0.00255812
0.00253313
0.00250835
0.00248342
0.00246078
0.00242495
0.00336871
0.00346453
0.00357057
0.00370216
0.00388797
0.00417058
0.00460782
0.00526745
0.00621343
0.00748377
0.00906737
0.0108935
0.0128446
0.0147879
0.0166116
0.0182472
0.019672
0.0208965
0.0219469
0.0228519
0.0236371
0.0243251
0.0249356
0.0254858
0.0259894
0.0264564
0.0268926
0.0273011
0.0276827
0.0280369
0.0283625
0.0286576
0.0289205
0.0291499
0.0293448
0.0295047
0.0296297
0.0297201
0.0297767
0.0298008
0.0297941
0.0297584
0.0296956
0.0296077
0.029497
0.0293661
0.0292169
0.0290512
0.0288709
0.0286778
0.028474
0.0282613
0.0280416
0.0278166
0.0275872
0.0273545
0.0271191
0.0268787
0.0266336
0.0263864
0.026139
0.025895
0.0256543
0.0254168
0.0251831
0.024954
0.0247307
0.0245135
0.0243023
0.0240973
0.0238984
0.0237059
0.0235199
0.0233407
0.0231683
0.0230027
0.0228439
0.0226918
0.0225464
0.0224077
0.0222756
0.0221503
0.0220316
0.0219194
0.0218136
0.021714
0.0216204
0.0215327
0.0214507
0.0213742
0.0213028
0.0212361
0.0211737
0.0211152
0.0210599
0.0210076
0.0209575
0.0209092
0.020862
0.0208152
0.0207684
0.0207207
0.0206715
0.02062
0.0205655
0.0205073
0.0204451
0.0203782
0.0203063
0.0202288
0.020145
0.0200542
0.0199559
0.0198499
0.019736
0.0196141
0.019485
0.0193483
0.0192055
0.0190575
0.0189048
0.0187481
0.0185886
0.0184257
0.0182598
0.0180911
0.01792
0.0177464
0.01757
0.0173909
0.0172094
0.0170256
0.01684
0.0166529
0.0164646
0.0162754
0.0160856
0.0158955
0.0157054
0.0155155
0.015326
0.0151373
0.0149494
0.0147626
0.0145769
0.0143926
0.0142098
0.0140285
0.0138489
0.0136711
0.0134951
0.013321
0.0131488
0.0129786
0.0128105
0.0126443
0.0124802
0.0123182
0.0121583
0.0120004
0.0118445
0.0116907
0.0115388
0.0113889
0.011241
0.0110949
0.0109507
0.0108083
0.0106676
0.0105286
0.0103912
0.0102554
0.0101212
0.00998849
0.00985722
0.00972736
0.00959886
0.00947169
0.00934581
0.00922118
0.00909777
0.00897555
0.00885452
0.00873465
0.00861594
0.00849837
0.00838196
0.00826674
0.00815274
0.00804003
0.00792869
0.00781884
0.00771063
0.00760431
0.00750029
0.00739922
0.00730222
0.00721089
0.00712762
0.00705585
0.00699975
0.00696382
0.0069523
0.00696793
0.00701082
0.00707717
0.00715978
0.00724919
0.0073351
0.00740796
0.00746036
0.00748744
0.00748699
0.00745904
0.00740528
0.0073284
0.00723152
0.00711777
0.00698998
0.00685066
0.00670189
0.00654542
0.00638274
0.00621507
0.00604347
0.00586878
0.00569168
0.00551264
0.00533198
0.00515042
0.00497046
0.00479814
0.00464147
0.00450751
0.00439812