/*--------------------------------*- C++ -*----------------------------------*\
| =========                 |                                                 |
| \\      /  F ield         | OpenFOAM: The Open Source CFD Toolbox           |
|  \\    /   O peration     | Version:  2306                                  |
|   \\  /    A nd           | Website:  www.openfoam.com                      |
|    \\/     M anipulation  |                                                 |
\*---------------------------------------------------------------------------*/
FoamFile
{
    version     2.0;
    format      ascii;
    arch        "LSB;label=32;scalar=64";
    class       volScalarField;
    location    "1000";
    object      nut;
}
// * * * * * * * * * * * * * * * * * * * * * * * * * * * * * * * * * * * * * //

dimensions      [0 2 -1 0 0 0 0];

internalField   nonuniform List<scalar> 
25600
(
9.41057e-07
1.38898e-06
1.70585e-06
1.90292e-06
2.00774e-06
2.04801e-06
2.04579e-06
2.01692e-06
1.97215e-06
1.91842e-06
1.86007e-06
1.79979e-06
1.65904e-06
1.51775e-06
1.39521e-06
1.28912e-06
1.19808e-06
1.11941e-06
1.05055e-06
9.901e-07
9.37535e-07
8.92879e-07
8.55444e-07
8.24652e-07
7.99929e-07
7.87912e-07
7.79873e-07
7.73859e-07
7.69743e-07
7.67327e-07
7.66359e-07
7.66593e-07
7.67799e-07
7.71061e-07
7.8023e-07
7.90928e-07
8.02934e-07
8.15521e-07
8.3301e-07
8.40211e-07
8.16569e-06
4.02232e-06
2.90811e-06
2.41348e-06
2.14728e-06
1.98716e-06
1.88281e-06
1.81081e-06
1.75972e-06
1.7241e-06
1.70169e-06
1.69237e-06
1.69598e-06
1.71382e-06
1.74893e-06
1.80372e-06
1.88311e-06
1.90454e-06
1.89297e-06
1.89393e-06
1.9194e-06
1.97952e-06
2.03709e-06
2.09358e-06
2.1504e-06
2.20875e-06
2.26943e-06
2.33268e-06
2.39808e-06
2.46516e-06
2.5334e-06
2.6023e-06
2.6714e-06
2.74039e-06
2.80908e-06
2.87739e-06
2.94465e-06
3.00921e-06
3.082e-06
3.12128e-06
2.25871e-05
1.7589e-05
1.33179e-05
1.04412e-05
8.52247e-06
7.19679e-06
6.2445e-06
5.53615e-06
4.99328e-06
4.56712e-06
4.22672e-06
3.95134e-06
3.72748e-06
3.54414e-06
3.38557e-06
3.24242e-06
3.11741e-06
3.01629e-06
2.93657e-06
2.87324e-06
2.82376e-06
2.78967e-06
2.77273e-06
2.77338e-06
2.79396e-06
2.83788e-06
2.90485e-06
2.98191e-06
3.04682e-06
3.11126e-06
3.17815e-06
3.2478e-06
3.32055e-06
3.39631e-06
3.47462e-06
3.5552e-06
3.639e-06
3.72581e-06
3.82013e-06
3.91602e-06
2.34718e-05
2.30283e-05
2.18591e-05
2.02391e-05
1.84953e-05
1.68264e-05
1.532e-05
1.39988e-05
1.28548e-05
1.18677e-05
1.10139e-05
1.02733e-05
9.62815e-06
9.06049e-06
8.54433e-06
8.0614e-06
7.60748e-06
7.18733e-06
6.80408e-06
6.45717e-06
6.14405e-06
5.86242e-06
5.61052e-06
5.39053e-06
5.1894e-06
4.97582e-06
4.76353e-06
4.57314e-06
4.41384e-06
4.28685e-06
4.19024e-06
4.12201e-06
4.07759e-06
4.05309e-06
4.0505e-06
4.06843e-06
4.10264e-06
4.14956e-06
4.20535e-06
4.27215e-06
2.34199e-05
2.33648e-05
2.31905e-05
2.28282e-05
2.22725e-05
2.1561e-05
2.07474e-05
1.9883e-05
1.9008e-05
1.81503e-05
1.7327e-05
1.65478e-05
1.58171e-05
1.51359e-05
1.45007e-05
1.39054e-05
1.33442e-05
1.28122e-05
1.23087e-05
1.18329e-05
1.13842e-05
1.09617e-05
1.05632e-05
1.01906e-05
9.83135e-06
9.45536e-06
9.0702e-06
8.69257e-06
8.33374e-06
7.99988e-06
7.69395e-06
7.417e-06
7.16932e-06
6.94859e-06
6.7318e-06
6.51333e-06
6.30468e-06
6.11739e-06
5.95472e-06
5.82785e-06
2.34109e-05
2.33612e-05
2.33021e-05
2.32094e-05
2.30595e-05
2.28372e-05
2.25388e-05
2.217e-05
2.17429e-05
2.12717e-05
2.07706e-05
2.02519e-05
1.97263e-05
1.92019e-05
1.86852e-05
1.81801e-05
1.7689e-05
1.72126e-05
1.67512e-05
1.63049e-05
1.58741e-05
1.5459e-05
1.50594e-05
1.46754e-05
1.43063e-05
1.39464e-05
1.35908e-05
1.32377e-05
1.28877e-05
1.25427e-05
1.22049e-05
1.18767e-05
1.15601e-05
1.1256e-05
1.09457e-05
1.06236e-05
1.02989e-05
9.98406e-06
9.68776e-06
9.41972e-06
2.34101e-05
2.33569e-05
2.33047e-05
2.32493e-05
2.31838e-05
2.30996e-05
2.29889e-05
2.28459e-05
2.26681e-05
2.24555e-05
2.22107e-05
2.19374e-05
2.16403e-05
2.13245e-05
2.09945e-05
2.0655e-05
2.03098e-05
1.9962e-05
1.9614e-05
1.92677e-05
1.89248e-05
1.85867e-05
1.82543e-05
1.79285e-05
1.761e-05
1.72988e-05
1.69942e-05
1.66948e-05
1.63995e-05
1.61077e-05
1.58189e-05
1.55334e-05
1.52516e-05
1.49746e-05
1.47011e-05
1.44283e-05
1.41552e-05
1.38829e-05
1.36152e-05
1.33535e-05
2.34099e-05
2.33559e-05
2.3303e-05
2.32507e-05
2.31979e-05
2.31422e-05
2.30804e-05
2.30091e-05
2.29248e-05
2.28252e-05
2.27084e-05
2.25736e-05
2.24211e-05
2.22517e-05
2.20666e-05
2.18677e-05
2.1657e-05
2.14363e-05
2.12077e-05
2.09729e-05
2.07336e-05
2.04913e-05
2.02474e-05
2.0003e-05
1.97592e-05
1.95167e-05
1.92763e-05
1.90381e-05
1.88022e-05
1.85684e-05
1.83365e-05
1.81065e-05
1.78783e-05
1.76521e-05
1.74282e-05
1.72064e-05
1.69866e-05
1.67689e-05
1.65542e-05
1.63431e-05
2.34098e-05
2.33554e-05
2.33021e-05
2.32497e-05
2.31981e-05
2.31468e-05
2.30951e-05
2.30415e-05
2.29848e-05
2.29232e-05
2.28553e-05
2.27797e-05
2.26954e-05
2.26016e-05
2.24982e-05
2.23849e-05
2.22621e-05
2.21303e-05
2.19903e-05
2.18427e-05
2.16884e-05
2.15285e-05
2.13637e-05
2.11951e-05
2.10233e-05
2.08492e-05
2.06736e-05
2.04969e-05
2.03196e-05
2.01422e-05
1.99647e-05
1.97875e-05
1.96107e-05
1.94344e-05
1.92589e-05
1.90845e-05
1.89115e-05
1.87403e-05
1.85715e-05
1.84057e-05
2.34098e-05
2.33552e-05
2.33016e-05
2.32489e-05
2.31972e-05
2.31464e-05
2.30962e-05
2.30463e-05
2.29962e-05
2.29453e-05
2.28928e-05
2.2838e-05
2.278e-05
2.27183e-05
2.2652e-05
2.25809e-05
2.25044e-05
2.24224e-05
2.23348e-05
2.22418e-05
2.21434e-05
2.204e-05
2.19319e-05
2.18195e-05
2.17032e-05
2.15836e-05
2.1461e-05
2.13358e-05
2.12086e-05
2.10796e-05
2.09492e-05
2.08177e-05
2.06853e-05
2.05524e-05
2.04191e-05
2.02858e-05
2.01528e-05
2.00205e-05
1.98896e-05
1.97605e-05
2.34097e-05
2.3355e-05
2.33012e-05
2.32484e-05
2.31966e-05
2.31457e-05
2.30956e-05
2.30462e-05
2.29975e-05
2.29491e-05
2.29008e-05
2.28523e-05
2.28032e-05
2.27531e-05
2.27015e-05
2.2648e-05
2.25924e-05
2.25341e-05
2.24731e-05
2.2409e-05
2.23418e-05
2.22714e-05
2.21978e-05
2.2121e-05
2.20411e-05
2.19583e-05
2.18729e-05
2.17849e-05
2.16946e-05
2.16022e-05
2.15079e-05
2.1412e-05
2.13147e-05
2.12162e-05
2.11167e-05
2.10165e-05
2.09158e-05
2.08151e-05
2.07146e-05
2.0615e-05
2.34097e-05
2.33549e-05
2.3301e-05
2.32482e-05
2.31962e-05
2.31452e-05
2.30951e-05
2.30459e-05
2.29974e-05
2.29495e-05
2.29023e-05
2.28556e-05
2.28091e-05
2.27628e-05
2.27164e-05
2.26697e-05
2.26223e-05
2.25742e-05
2.25251e-05
2.24747e-05
2.24228e-05
2.23694e-05
2.23143e-05
2.22574e-05
2.21986e-05
2.2138e-05
2.20755e-05
2.20112e-05
2.19451e-05
2.18773e-05
2.18079e-05
2.1737e-05
2.16647e-05
2.15912e-05
2.15166e-05
2.14411e-05
2.13648e-05
2.1288e-05
2.1211e-05
2.1134e-05
2.34097e-05
2.33549e-05
2.33011e-05
2.32483e-05
2.31964e-05
2.31455e-05
2.30955e-05
2.30463e-05
2.2998e-05
2.29504e-05
2.29036e-05
2.28574e-05
2.28119e-05
2.27668e-05
2.27222e-05
2.26779e-05
2.26338e-05
2.25897e-05
2.25455e-05
2.2501e-05
2.24561e-05
2.24108e-05
2.23647e-05
2.23179e-05
2.22703e-05
2.22217e-05
2.21721e-05
2.21214e-05
2.20697e-05
2.2017e-05
2.19631e-05
2.19082e-05
2.18524e-05
2.17955e-05
2.17378e-05
2.16793e-05
2.16201e-05
2.15603e-05
2.15001e-05
2.14396e-05
2.34098e-05
2.33553e-05
2.33018e-05
2.32493e-05
2.31978e-05
2.31473e-05
2.30976e-05
2.30488e-05
2.30008e-05
2.29536e-05
2.29071e-05
2.28614e-05
2.28164e-05
2.27719e-05
2.27281e-05
2.26848e-05
2.2642e-05
2.25996e-05
2.25574e-05
2.25155e-05
2.24737e-05
2.24319e-05
2.23901e-05
2.23481e-05
2.23059e-05
2.22634e-05
2.22206e-05
2.21773e-05
2.21335e-05
2.20892e-05
2.20444e-05
2.19989e-05
2.1953e-05
2.19064e-05
2.18593e-05
2.18117e-05
2.17636e-05
2.17151e-05
2.16662e-05
2.1617e-05
2.34103e-05
2.33566e-05
2.33039e-05
2.32523e-05
2.32015e-05
2.31517e-05
2.31027e-05
2.30546e-05
2.30073e-05
2.29607e-05
2.29149e-05
2.28697e-05
2.28252e-05
2.27814e-05
2.27382e-05
2.26956e-05
2.26535e-05
2.26119e-05
2.25708e-05
2.253e-05
2.24896e-05
2.24495e-05
2.24096e-05
2.23699e-05
2.23303e-05
2.22908e-05
2.22512e-05
2.22116e-05
2.21719e-05
2.21321e-05
2.20921e-05
2.20519e-05
2.20115e-05
2.19709e-05
2.193e-05
2.18889e-05
2.18475e-05
2.18059e-05
2.17641e-05
2.17221e-05
2.34111e-05
2.33591e-05
2.33079e-05
2.32576e-05
2.32082e-05
2.31597e-05
2.31119e-05
2.30649e-05
2.30186e-05
2.2973e-05
2.29281e-05
2.28837e-05
2.28401e-05
2.2797e-05
2.27544e-05
2.27125e-05
2.2671e-05
2.26301e-05
2.25896e-05
2.25495e-05
2.25099e-05
2.24706e-05
2.24317e-05
2.2393e-05
2.23546e-05
2.23164e-05
2.22784e-05
2.22406e-05
2.22029e-05
2.21653e-05
2.21277e-05
2.20902e-05
2.20527e-05
2.20152e-05
2.19777e-05
2.19401e-05
2.19025e-05
2.18649e-05
2.18273e-05
2.17895e-05
2.34123e-05
2.33625e-05
2.33135e-05
2.32653e-05
2.32178e-05
2.3171e-05
2.31248e-05
2.30793e-05
2.30344e-05
2.29901e-05
2.29463e-05
2.29031e-05
2.28604e-05
2.28182e-05
2.27765e-05
2.27352e-05
2.26944e-05
2.26541e-05
2.26142e-05
2.25747e-05
2.25355e-05
2.24967e-05
2.24583e-05
2.24202e-05
2.23824e-05
2.23448e-05
2.23075e-05
2.22705e-05
2.22337e-05
2.2197e-05
2.21606e-05
2.21243e-05
2.20882e-05
2.20522e-05
2.20163e-05
2.19805e-05
2.19449e-05
2.19093e-05
2.18738e-05
2.18383e-05
2.34137e-05
2.33666e-05
2.33201e-05
2.32742e-05
2.32289e-05
2.31841e-05
2.31398e-05
2.3096e-05
2.30527e-05
2.30098e-05
2.29673e-05
2.29252e-05
2.28835e-05
2.28423e-05
2.28014e-05
2.27609e-05
2.27208e-05
2.2681e-05
2.26416e-05
2.26026e-05
2.25638e-05
2.25254e-05
2.24873e-05
2.24495e-05
2.2412e-05
2.23748e-05
2.23378e-05
2.2301e-05
2.22646e-05
2.22283e-05
2.21923e-05
2.21565e-05
2.21209e-05
2.20855e-05
2.20503e-05
2.20153e-05
2.19805e-05
2.19458e-05
2.19113e-05
2.18769e-05
2.34151e-05
2.33707e-05
2.33266e-05
2.3283e-05
2.32397e-05
2.31968e-05
2.31542e-05
2.31119e-05
2.30699e-05
2.30282e-05
2.29868e-05
2.29458e-05
2.2905e-05
2.28645e-05
2.28243e-05
2.27845e-05
2.27449e-05
2.27056e-05
2.26666e-05
2.26279e-05
2.25895e-05
2.25514e-05
2.25135e-05
2.24759e-05
2.24385e-05
2.24014e-05
2.23645e-05
2.23279e-05
2.22915e-05
2.22554e-05
2.22195e-05
2.21838e-05
2.21484e-05
2.21132e-05
2.20782e-05
2.20434e-05
2.20088e-05
2.19745e-05
2.19403e-05
2.19062e-05
2.34163e-05
2.3374e-05
2.33317e-05
2.32895e-05
2.32475e-05
2.32057e-05
2.31641e-05
2.31227e-05
2.30815e-05
2.30405e-05
2.29998e-05
2.29593e-05
2.2919e-05
2.2879e-05
2.28392e-05
2.27996e-05
2.27604e-05
2.27214e-05
2.26826e-05
2.26441e-05
2.26058e-05
2.25678e-05
2.253e-05
2.24925e-05
2.24552e-05
2.24181e-05
2.23813e-05
2.23447e-05
2.23083e-05
2.22722e-05
2.22363e-05
2.22006e-05
2.21652e-05
2.21299e-05
2.2095e-05
2.20602e-05
2.20256e-05
2.19913e-05
2.19571e-05
2.1923e-05
2.34163e-05
2.3374e-05
2.33317e-05
2.32895e-05
2.32475e-05
2.32057e-05
2.31641e-05
2.31227e-05
2.30815e-05
2.30405e-05
2.29998e-05
2.29593e-05
2.2919e-05
2.2879e-05
2.28392e-05
2.27996e-05
2.27604e-05
2.27214e-05
2.26826e-05
2.26441e-05
2.26058e-05
2.25678e-05
2.253e-05
2.24925e-05
2.24552e-05
2.24181e-05
2.23812e-05
2.23446e-05
2.23082e-05
2.22721e-05
2.22362e-05
2.22005e-05
2.2165e-05
2.21298e-05
2.20947e-05
2.20599e-05
2.20253e-05
2.19908e-05
2.19565e-05
2.19224e-05
2.34151e-05
2.33707e-05
2.33266e-05
2.3283e-05
2.32397e-05
2.31968e-05
2.31542e-05
2.31119e-05
2.30699e-05
2.30282e-05
2.29868e-05
2.29458e-05
2.2905e-05
2.28645e-05
2.28243e-05
2.27845e-05
2.27449e-05
2.27056e-05
2.26666e-05
2.26279e-05
2.25895e-05
2.25513e-05
2.25135e-05
2.24758e-05
2.24384e-05
2.24013e-05
2.23644e-05
2.23278e-05
2.22914e-05
2.22552e-05
2.22193e-05
2.21835e-05
2.2148e-05
2.21127e-05
2.20776e-05
2.20426e-05
2.20079e-05
2.19732e-05
2.19387e-05
2.19043e-05
2.34137e-05
2.33666e-05
2.33201e-05
2.32742e-05
2.32289e-05
2.31841e-05
2.31398e-05
2.3096e-05
2.30527e-05
2.30098e-05
2.29673e-05
2.29252e-05
2.28835e-05
2.28423e-05
2.28014e-05
2.27609e-05
2.27208e-05
2.2681e-05
2.26416e-05
2.26026e-05
2.25638e-05
2.25254e-05
2.24873e-05
2.24495e-05
2.24119e-05
2.23747e-05
2.23377e-05
2.23009e-05
2.22644e-05
2.22281e-05
2.2192e-05
2.21561e-05
2.21204e-05
2.20848e-05
2.20494e-05
2.20142e-05
2.1979e-05
2.1944e-05
2.1909e-05
2.1874e-05
2.34123e-05
2.33625e-05
2.33135e-05
2.32653e-05
2.32178e-05
2.3171e-05
2.31248e-05
2.30793e-05
2.30344e-05
2.29901e-05
2.29463e-05
2.29031e-05
2.28604e-05
2.28182e-05
2.27765e-05
2.27352e-05
2.26944e-05
2.26541e-05
2.26142e-05
2.25746e-05
2.25355e-05
2.24967e-05
2.24583e-05
2.24201e-05
2.23823e-05
2.23447e-05
2.23074e-05
2.22703e-05
2.22334e-05
2.21967e-05
2.21602e-05
2.21238e-05
2.20875e-05
2.20513e-05
2.20152e-05
2.19791e-05
2.1943e-05
2.19069e-05
2.18708e-05
2.18345e-05
2.34111e-05
2.33591e-05
2.33079e-05
2.32576e-05
2.32082e-05
2.31597e-05
2.31119e-05
2.30649e-05
2.30186e-05
2.2973e-05
2.2928e-05
2.28837e-05
2.28401e-05
2.2797e-05
2.27544e-05
2.27125e-05
2.2671e-05
2.26301e-05
2.25896e-05
2.25495e-05
2.25099e-05
2.24706e-05
2.24316e-05
2.23929e-05
2.23545e-05
2.23163e-05
2.22783e-05
2.22404e-05
2.22026e-05
2.21649e-05
2.21273e-05
2.20896e-05
2.20519e-05
2.20142e-05
2.19764e-05
2.19384e-05
2.19003e-05
2.1862e-05
2.18234e-05
2.17846e-05
2.34103e-05
2.33566e-05
2.33039e-05
2.32523e-05
2.32015e-05
2.31517e-05
2.31027e-05
2.30546e-05
2.30073e-05
2.29607e-05
2.29149e-05
2.28697e-05
2.28252e-05
2.27814e-05
2.27382e-05
2.26956e-05
2.26535e-05
2.26119e-05
2.25708e-05
2.253e-05
2.24896e-05
2.24495e-05
2.24096e-05
2.23698e-05
2.23302e-05
2.22906e-05
2.2251e-05
2.22114e-05
2.21716e-05
2.21317e-05
2.20916e-05
2.20512e-05
2.20106e-05
2.19696e-05
2.19284e-05
2.18867e-05
2.18446e-05
2.1802e-05
2.1759e-05
2.17155e-05
2.34098e-05
2.33553e-05
2.33018e-05
2.32493e-05
2.31978e-05
2.31473e-05
2.30976e-05
2.30488e-05
2.30008e-05
2.29536e-05
2.29071e-05
2.28614e-05
2.28163e-05
2.27719e-05
2.27281e-05
2.26848e-05
2.2642e-05
2.25995e-05
2.25574e-05
2.25155e-05
2.24737e-05
2.24319e-05
2.23901e-05
2.23481e-05
2.23058e-05
2.22633e-05
2.22204e-05
2.2177e-05
2.21331e-05
2.20887e-05
2.20437e-05
2.19981e-05
2.19518e-05
2.19048e-05
2.18571e-05
2.18087e-05
2.17595e-05
2.17096e-05
2.16588e-05
2.16073e-05
2.34097e-05
2.33549e-05
2.33011e-05
2.32483e-05
2.31964e-05
2.31455e-05
2.30955e-05
2.30463e-05
2.2998e-05
2.29504e-05
2.29036e-05
2.28574e-05
2.28119e-05
2.27668e-05
2.27222e-05
2.26779e-05
2.26338e-05
2.25896e-05
2.25454e-05
2.2501e-05
2.24561e-05
2.24107e-05
2.23647e-05
2.23178e-05
2.22701e-05
2.22215e-05
2.21718e-05
2.21211e-05
2.20692e-05
2.20163e-05
2.19622e-05
2.19069e-05
2.18506e-05
2.17931e-05
2.17345e-05
2.16748e-05
2.16139e-05
2.1552e-05
2.14889e-05
2.14247e-05
2.34097e-05
2.33549e-05
2.3301e-05
2.32482e-05
2.31962e-05
2.31452e-05
2.30951e-05
2.30459e-05
2.29974e-05
2.29495e-05
2.29023e-05
2.28556e-05
2.28091e-05
2.27628e-05
2.27164e-05
2.26696e-05
2.26223e-05
2.25742e-05
2.2525e-05
2.24746e-05
2.24228e-05
2.23694e-05
2.23142e-05
2.22573e-05
2.21984e-05
2.21377e-05
2.20751e-05
2.20106e-05
2.19443e-05
2.18762e-05
2.18064e-05
2.1735e-05
2.1662e-05
2.15874e-05
2.15114e-05
2.1434e-05
2.13552e-05
2.12751e-05
2.11936e-05
2.11108e-05
2.34097e-05
2.3355e-05
2.33012e-05
2.32484e-05
2.31966e-05
2.31457e-05
2.30956e-05
2.30462e-05
2.29975e-05
2.29491e-05
2.29008e-05
2.28523e-05
2.28032e-05
2.27531e-05
2.27015e-05
2.2648e-05
2.25923e-05
2.25341e-05
2.24731e-05
2.2409e-05
2.23417e-05
2.22713e-05
2.21976e-05
2.21207e-05
2.20408e-05
2.19579e-05
2.18722e-05
2.1784e-05
2.16933e-05
2.16005e-05
2.15056e-05
2.14088e-05
2.13103e-05
2.12102e-05
2.11085e-05
2.10054e-05
2.09009e-05
2.0795e-05
2.06878e-05
2.05791e-05
2.34098e-05
2.33552e-05
2.33016e-05
2.32489e-05
2.31972e-05
2.31464e-05
2.30962e-05
2.30463e-05
2.29962e-05
2.29453e-05
2.28928e-05
2.2838e-05
2.278e-05
2.27183e-05
2.2652e-05
2.25809e-05
2.25044e-05
2.24224e-05
2.23348e-05
2.22417e-05
2.21433e-05
2.20398e-05
2.19316e-05
2.18191e-05
2.17027e-05
2.15828e-05
2.14599e-05
2.13344e-05
2.12066e-05
2.10768e-05
2.09455e-05
2.08126e-05
2.06784e-05
2.05431e-05
2.04066e-05
2.0269e-05
2.01303e-05
1.99905e-05
1.98495e-05
1.97072e-05
2.34098e-05
2.33554e-05
2.33021e-05
2.32497e-05
2.31981e-05
2.31468e-05
2.30951e-05
2.30415e-05
2.29848e-05
2.29232e-05
2.28553e-05
2.27797e-05
2.26954e-05
2.26016e-05
2.24981e-05
2.23849e-05
2.22621e-05
2.21303e-05
2.19902e-05
2.18425e-05
2.16882e-05
2.15282e-05
2.13633e-05
2.11944e-05
2.10224e-05
2.0848e-05
2.06719e-05
2.04946e-05
2.03165e-05
2.01379e-05
1.9959e-05
1.97799e-05
1.96005e-05
1.94208e-05
1.92408e-05
1.90605e-05
1.88796e-05
1.86978e-05
1.85149e-05
1.83304e-05
2.34099e-05
2.33559e-05
2.3303e-05
2.32507e-05
2.31979e-05
2.31422e-05
2.30804e-05
2.30091e-05
2.29248e-05
2.28252e-05
2.27084e-05
2.25736e-05
2.24211e-05
2.22517e-05
2.20666e-05
2.18677e-05
2.16569e-05
2.14362e-05
2.12075e-05
2.09727e-05
2.07332e-05
2.04908e-05
2.02467e-05
2.0002e-05
1.97578e-05
1.95149e-05
1.92738e-05
1.90348e-05
1.87977e-05
1.85624e-05
1.83286e-05
1.8096e-05
1.78644e-05
1.76337e-05
1.74039e-05
1.71742e-05
1.6944e-05
1.67122e-05
1.64782e-05
1.62419e-05
2.34101e-05
2.33569e-05
2.33047e-05
2.32493e-05
2.31838e-05
2.30996e-05
2.29889e-05
2.28459e-05
2.26681e-05
2.24555e-05
2.22107e-05
2.19374e-05
2.16403e-05
2.13244e-05
2.09945e-05
2.0655e-05
2.03097e-05
1.99618e-05
1.96137e-05
1.92673e-05
1.89243e-05
1.85859e-05
1.82533e-05
1.79271e-05
1.76081e-05
1.72963e-05
1.69909e-05
1.66904e-05
1.63938e-05
1.61e-05
1.58088e-05
1.552e-05
1.52341e-05
1.49515e-05
1.46701e-05
1.43864e-05
1.40985e-05
1.38064e-05
1.35114e-05
1.32156e-05
2.34109e-05
2.33612e-05
2.33021e-05
2.32094e-05
2.30595e-05
2.28372e-05
2.25388e-05
2.217e-05
2.17429e-05
2.12717e-05
2.07705e-05
2.02519e-05
1.97262e-05
1.92019e-05
1.86851e-05
1.818e-05
1.76889e-05
1.72124e-05
1.67508e-05
1.63044e-05
1.58734e-05
1.54581e-05
1.50582e-05
1.46738e-05
1.43041e-05
1.39434e-05
1.35867e-05
1.32322e-05
1.28804e-05
1.2533e-05
1.21921e-05
1.18596e-05
1.15379e-05
1.12259e-05
1.09026e-05
1.05638e-05
1.02193e-05
9.87998e-06
9.55306e-06
9.24297e-06
2.34199e-05
2.33648e-05
2.31905e-05
2.28282e-05
2.22725e-05
2.1561e-05
2.07474e-05
1.9883e-05
1.9008e-05
1.81503e-05
1.7327e-05
1.65478e-05
1.58171e-05
1.51358e-05
1.45006e-05
1.39053e-05
1.33439e-05
1.28119e-05
1.23082e-05
1.18323e-05
1.13834e-05
1.09606e-05
1.05617e-05
1.01888e-05
9.8286e-06
9.45134e-06
9.06476e-06
8.68547e-06
8.32465e-06
7.98835e-06
7.67942e-06
7.39876e-06
7.14676e-06
6.91927e-06
6.69164e-06
6.46119e-06
6.2409e-06
6.04095e-06
5.86598e-06
5.71669e-06
2.34718e-05
2.30283e-05
2.18591e-05
2.02391e-05
1.84953e-05
1.68264e-05
1.532e-05
1.39988e-05
1.28548e-05
1.18677e-05
1.10138e-05
1.02732e-05
9.62808e-06
9.06039e-06
8.54418e-06
8.06118e-06
7.60721e-06
7.18696e-06
6.8036e-06
6.45655e-06
6.14324e-06
5.8614e-06
5.60921e-06
5.38895e-06
5.18713e-06
4.97269e-06
4.75969e-06
4.56877e-06
4.40903e-06
4.28167e-06
4.1848e-06
4.11655e-06
4.07197e-06
4.04777e-06
4.04632e-06
4.06582e-06
4.10209e-06
4.15183e-06
4.21332e-06
4.28417e-06
2.25871e-05
1.7589e-05
1.33179e-05
1.04412e-05
8.52246e-06
7.19678e-06
6.24449e-06
5.53614e-06
4.99326e-06
4.56709e-06
4.22669e-06
3.9513e-06
3.72743e-06
3.54408e-06
3.38549e-06
3.24231e-06
3.11729e-06
3.01616e-06
2.93642e-06
2.87308e-06
2.82358e-06
2.78949e-06
2.77256e-06
2.77325e-06
2.79395e-06
2.83807e-06
2.9052e-06
2.9825e-06
3.04685e-06
3.11134e-06
3.17833e-06
3.24821e-06
3.32132e-06
3.3976e-06
3.47687e-06
3.55874e-06
3.64307e-06
3.72972e-06
3.81859e-06
3.90942e-06
8.16569e-06
4.02232e-06
2.90811e-06
2.41348e-06
2.14728e-06
1.98716e-06
1.88281e-06
1.81081e-06
1.75972e-06
1.7241e-06
1.70169e-06
1.69237e-06
1.69598e-06
1.71382e-06
1.74894e-06
1.80373e-06
1.88313e-06
1.90451e-06
1.89292e-06
1.89386e-06
1.91932e-06
1.97938e-06
2.03687e-06
2.09324e-06
2.14991e-06
2.20807e-06
2.26851e-06
2.33144e-06
2.39639e-06
2.46286e-06
2.53025e-06
2.59799e-06
2.66551e-06
2.73229e-06
2.79786e-06
2.86189e-06
2.92403e-06
2.98389e-06
3.04118e-06
3.0955e-06
9.41057e-07
1.38898e-06
1.70585e-06
1.90292e-06
2.00774e-06
2.04801e-06
2.04579e-06
2.01692e-06
1.97215e-06
1.91842e-06
1.86007e-06
1.79978e-06
1.65901e-06
1.51771e-06
1.39516e-06
1.28906e-06
1.19799e-06
1.11929e-06
1.05039e-06
9.8989e-07
9.37256e-07
8.9251e-07
8.54956e-07
8.24012e-07
7.99088e-07
7.87623e-07
7.79492e-07
7.73365e-07
7.69108e-07
7.66507e-07
7.65305e-07
7.65235e-07
7.66051e-07
7.6753e-07
7.69495e-07
7.76584e-07
7.84048e-07
7.91635e-07
7.99117e-07
8.06294e-07
1.53283e-06
2.73916e-06
5.0229e-06
8.02522e-06
1.11303e-05
1.40106e-05
1.66511e-05
1.91468e-05
2.15681e-05
2.39384e-05
2.62601e-05
2.85341e-05
3.07642e-05
3.29554e-05
3.51145e-05
3.72506e-05
3.9375e-05
4.15007e-05
4.36406e-05
4.58064e-05
4.80087e-05
5.02565e-05
5.25542e-05
5.48997e-05
5.72846e-05
5.96957e-05
6.21173e-05
6.45323e-05
6.69243e-05
6.92772e-05
7.15762e-05
7.38094e-05
7.59656e-05
7.80358e-05
8.00141e-05
8.18975e-05
8.3681e-05
8.53625e-05
8.69433e-05
8.8427e-05
8.9813e-05
9.11016e-05
9.2297e-05
9.3405e-05
9.44316e-05
9.53831e-05
9.62575e-05
9.70584e-05
9.77925e-05
9.84663e-05
9.90855e-05
9.96552e-05
0.00010018
0.000100665
0.000101106
0.000101508
0.000101877
0.000102225
0.000102555
0.000102763
0.000102742
0.000102675
0.000102586
0.000102487
0.000102385
0.00010228
0.000102173
0.00010207
0.000101976
0.000101895
0.000101828
0.000101775
0.000101733
0.000101705
0.000101694
0.000101704
0.000101735
0.000101786
0.000101858
0.000101952
0.000102069
0.000102211
0.000102378
0.000102573
0.000102796
0.000103046
0.000103325
0.000103633
0.000103971
0.000104337
0.000104733
0.000105159
0.000105612
0.000106092
0.000106599
0.00010713
0.000107685
0.00010826
0.000108856
0.000109473
0.000110107
0.000110763
0.000111444
0.000112157
0.00011291
0.000113717
0.000114595
0.000115555
0.000116618
0.000117781
0.000118948
0.000119993
0.000120713
0.000120791
0.000120829
0.000120833
0.0001208
0.00012073
0.000120625
0.000120485
0.000120309
0.000120099
0.000119854
0.000119575
0.000119262
0.000118916
0.00011854
0.000118133
0.000117695
0.000117227
0.000116729
0.000116201
0.000115645
0.000115062
0.000114454
0.000113823
0.00011317
0.000112496
0.000111804
0.000111095
0.00011037
0.000109631
0.000108879
0.000108115
0.00010734
0.000106556
0.000105763
0.000104962
0.000104155
0.000103341
0.000102523
0.000101701
0.000100874
0.000100045
9.92141e-05
9.83811e-05
9.7547e-05
9.67123e-05
9.58774e-05
9.50427e-05
9.42086e-05
9.33754e-05
9.25433e-05
9.17127e-05
9.08837e-05
9.00564e-05
8.9231e-05
8.84076e-05
8.75862e-05
8.67671e-05
8.59502e-05
8.51356e-05
8.43235e-05
8.35138e-05
8.27067e-05
8.19022e-05
8.11002e-05
8.03009e-05
7.95042e-05
7.87101e-05
7.79187e-05
7.713e-05
7.63443e-05
7.55619e-05
7.47831e-05
7.40082e-05
7.32377e-05
7.2472e-05
7.17118e-05
7.09584e-05
7.02137e-05
6.948e-05
6.85757e-05
6.74246e-05
6.62778e-05
6.51514e-05
6.40797e-05
6.31026e-05
6.22645e-05
6.15728e-05
6.10659e-05
6.07834e-05
6.07357e-05
6.09131e-05
6.12824e-05
6.17816e-05
6.23241e-05
6.28197e-05
6.31901e-05
6.33755e-05
6.33355e-05
6.30531e-05
6.25324e-05
6.17951e-05
6.08703e-05
5.9792e-05
5.85935e-05
5.73079e-05
5.59659e-05
5.45968e-05
5.32254e-05
5.1873e-05
5.05558e-05
4.92862e-05
4.80679e-05
4.68994e-05
4.57672e-05
4.46365e-05
4.34263e-05
4.20122e-05
4.02754e-05
3.82849e-05
3.64904e-05
3.58291e-05
3.75621e-05
4.27056e-05
5.07437e-05
5.82516e-05
6.00738e-05
6.01218e-05
6.01486e-05
6.01503e-05
6.01171e-05
6.0043e-05
5.99276e-05
5.97739e-05
5.95872e-05
5.93734e-05
5.91384e-05
5.88877e-05
5.86257e-05
5.83561e-05
5.80815e-05
5.78039e-05
5.75243e-05
5.72436e-05
5.69619e-05
5.66793e-05
5.63954e-05
5.611e-05
5.58225e-05
5.55325e-05
5.52397e-05
5.49438e-05
5.46447e-05
5.43422e-05
5.40364e-05
5.37274e-05
5.34154e-05
5.31007e-05
5.27837e-05
5.24646e-05
5.21438e-05
5.18217e-05
5.14986e-05
5.11748e-05
5.08507e-05
5.05265e-05
5.02025e-05
4.98789e-05
4.95559e-05
4.92338e-05
4.89126e-05
4.85926e-05
4.82739e-05
4.79566e-05
4.76409e-05
4.73269e-05
4.70146e-05
4.67043e-05
4.63959e-05
4.60896e-05
4.57855e-05
4.54837e-05
4.51841e-05
4.48869e-05
4.45926e-05
4.42978e-05
4.40264e-05
4.3611e-05
3.636e-06
4.24955e-06
5.03076e-06
6.18378e-06
7.78566e-06
9.79756e-06
1.20827e-05
1.44844e-05
1.68914e-05
1.92556e-05
2.1571e-05
2.38433e-05
2.60743e-05
2.82627e-05
3.04092e-05
3.25189e-05
3.46001e-05
3.66622e-05
3.87152e-05
4.0769e-05
4.28338e-05
4.49197e-05
4.70346e-05
4.91821e-05
5.1361e-05
5.35649e-05
5.57843e-05
5.8007e-05
6.02196e-05
6.24083e-05
6.456e-05
6.66625e-05
6.8705e-05
7.06781e-05
7.25747e-05
7.43897e-05
7.61186e-05
7.77582e-05
7.93075e-05
8.07679e-05
8.21398e-05
8.34235e-05
8.46213e-05
8.57373e-05
8.67764e-05
8.77442e-05
8.86415e-05
8.94711e-05
9.02374e-05
9.09462e-05
9.16025e-05
9.22114e-05
9.27777e-05
9.33052e-05
9.37943e-05
9.42475e-05
9.46704e-05
9.48527e-05
9.48939e-05
9.48968e-05
9.48491e-05
9.47843e-05
9.47132e-05
9.46387e-05
9.45612e-05
9.4482e-05
9.44072e-05
9.43438e-05
9.42951e-05
9.42617e-05
9.42432e-05
9.42369e-05
9.42437e-05
9.42675e-05
9.43113e-05
9.43766e-05
9.44639e-05
9.45711e-05
9.46978e-05
9.48457e-05
9.50165e-05
9.52117e-05
9.5433e-05
9.5682e-05
9.59579e-05
9.62603e-05
9.65902e-05
9.69491e-05
9.7337e-05
9.77549e-05
9.82039e-05
9.86833e-05
9.9192e-05
9.97303e-05
0.000100297
0.000100889
0.000101507
0.000102148
0.00010281
0.000103492
0.000104189
0.000104901
0.000105627
0.000106368
0.000107129
0.000107917
0.000108741
0.00010962
0.00011057
0.000111625
0.00011277
0.000114005
0.000115186
0.00011624
0.000117132
0.000117241
0.00011731
0.000117344
0.000117341
0.000117301
0.000117226
0.000117114
0.000116966
0.000116782
0.000116563
0.00011631
0.000116025
0.000115707
0.000115356
0.000114972
0.000114555
0.000114106
0.000113626
0.000113116
0.000112578
0.000112013
0.000111424
0.000110812
0.000110179
0.000109525
0.000108854
0.000108165
0.000107461
0.000106743
0.000106012
0.000105269
0.000104515
0.000103751
0.000102979
0.000102199
0.000101413
0.00010062
9.98218e-05
9.90193e-05
9.82131e-05
9.74037e-05
9.65919e-05
9.57781e-05
9.49628e-05
9.41466e-05
9.33298e-05
9.25129e-05
9.16961e-05
9.08798e-05
9.00642e-05
8.92494e-05
8.84357e-05
8.76232e-05
8.6812e-05
8.60023e-05
8.51941e-05
8.43876e-05
8.35829e-05
8.278e-05
8.19791e-05
8.11803e-05
8.03835e-05
7.9589e-05
7.87966e-05
7.80065e-05
7.72187e-05
7.64334e-05
7.56509e-05
7.48713e-05
7.40951e-05
7.33223e-05
7.25534e-05
7.17887e-05
7.10289e-05
7.02748e-05
6.95278e-05
6.87895e-05
6.80622e-05
6.73507e-05
6.6661e-05
6.57903e-05
6.47237e-05
6.36925e-05
6.2718e-05
6.18424e-05
6.11183e-05
6.06108e-05
6.03281e-05
6.02781e-05
6.04548e-05
6.08046e-05
6.12487e-05
6.17023e-05
6.20867e-05
6.23299e-05
6.23793e-05
6.22049e-05
6.18012e-05
6.118e-05
6.03648e-05
5.93841e-05
5.82705e-05
5.70558e-05
5.57729e-05
5.44513e-05
5.31163e-05
5.17866e-05
5.04766e-05
4.91917e-05
4.79295e-05
4.66766e-05
4.54111e-05
4.40866e-05
4.26317e-05
4.09838e-05
3.92044e-05
3.76453e-05
3.70103e-05
3.82797e-05
4.23732e-05
4.92626e-05
5.66571e-05
5.92207e-05
5.93378e-05
5.94512e-05
5.95586e-05
5.96441e-05
5.96928e-05
5.9696e-05
5.96513e-05
5.95606e-05
5.94288e-05
5.92621e-05
5.90669e-05
5.88493e-05
5.86147e-05
5.83672e-05
5.81103e-05
5.78466e-05
5.75777e-05
5.73049e-05
5.70288e-05
5.67499e-05
5.64683e-05
5.61837e-05
5.58962e-05
5.56055e-05
5.53115e-05
5.5014e-05
5.4713e-05
5.44086e-05
5.41008e-05
5.37899e-05
5.34761e-05
5.31597e-05
5.2841e-05
5.25204e-05
5.21983e-05
5.18749e-05
5.15507e-05
5.12259e-05
5.09008e-05
5.05758e-05
5.0251e-05
4.99267e-05
4.9603e-05
4.92803e-05
4.89586e-05
4.86381e-05
4.8319e-05
4.80013e-05
4.76852e-05
4.73707e-05
4.70581e-05
4.67474e-05
4.64386e-05
4.61319e-05
4.58273e-05
4.5525e-05
4.52249e-05
4.4927e-05
4.4632e-05
4.43365e-05
4.40641e-05
4.36476e-05
4.20085e-06
4.41641e-06
4.6391e-06
4.98116e-06
5.51238e-06
6.3129e-06
7.44592e-06
8.93119e-06
1.07373e-05
1.27916e-05
1.50014e-05
1.72783e-05
1.95587e-05
2.18092e-05
2.40189e-05
2.61862e-05
2.83119e-05
3.03987e-05
3.24521e-05
3.44797e-05
3.64913e-05
3.8497e-05
4.05058e-05
4.25247e-05
4.45577e-05
4.6605e-05
4.86632e-05
5.07256e-05
5.27834e-05
5.48262e-05
5.68435e-05
5.88246e-05
6.07597e-05
6.26399e-05
6.44576e-05
6.62067e-05
6.78824e-05
6.9481e-05
7.10001e-05
7.24394e-05
7.3799e-05
7.50793e-05
7.62816e-05
7.74086e-05
7.8464e-05
7.94523e-05
8.0376e-05
8.12375e-05
8.20403e-05
8.27889e-05
8.34879e-05
8.41417e-05
8.47551e-05
8.53318e-05
8.58738e-05
8.63831e-05
8.67957e-05
8.68393e-05
8.68097e-05
8.67336e-05
8.66376e-05
8.65651e-05
8.64994e-05
8.643e-05
8.63552e-05
8.62836e-05
8.62306e-05
8.61973e-05
8.61804e-05
8.61775e-05
8.61868e-05
8.62097e-05
8.62509e-05
8.63142e-05
8.64003e-05
8.65085e-05
8.66379e-05
8.6786e-05
8.69532e-05
8.71428e-05
8.73569e-05
8.75967e-05
8.78633e-05
8.81571e-05
8.84767e-05
8.88217e-05
8.91939e-05
8.95954e-05
9.00268e-05
9.04893e-05
9.09841e-05
9.15104e-05
9.20674e-05
9.26553e-05
9.32733e-05
9.39205e-05
9.45963e-05
9.52991e-05
9.60271e-05
9.67776e-05
9.75469e-05
9.83324e-05
9.91315e-05
9.99423e-05
0.000100764
0.000101598
0.000102447
0.000103321
0.000104232
0.000105202
0.000106253
0.000107407
0.000108637
0.000109919
0.000111153
0.000112249
0.000113222
0.000113561
0.000113665
0.000113732
0.000113763
0.000113755
0.000113711
0.00011363
0.000113512
0.000113359
0.000113173
0.000112952
0.000112697
0.000112405
0.000112078
0.000111715
0.000111318
0.000110888
0.000110427
0.000109936
0.000109418
0.000108874
0.000108306
0.000107715
0.000107103
0.000106471
0.000105822
0.000105155
0.000104473
0.000103777
0.000103068
0.000102347
0.000101615
0.000100874
0.000100123
9.9365e-05
9.85996e-05
9.78281e-05
9.7051e-05
9.62693e-05
9.54836e-05
9.46944e-05
9.39024e-05
9.31081e-05
9.2312e-05
9.15145e-05
9.07161e-05
8.9917e-05
8.91176e-05
8.83181e-05
8.75187e-05
8.67196e-05
8.59209e-05
8.51229e-05
8.43256e-05
8.35293e-05
8.2734e-05
8.19399e-05
8.11472e-05
8.03558e-05
7.9566e-05
7.87778e-05
7.79914e-05
7.72067e-05
7.64241e-05
7.56436e-05
7.48656e-05
7.40902e-05
7.33177e-05
7.25483e-05
7.17822e-05
7.10198e-05
7.02616e-05
6.95083e-05
6.87608e-05
6.80202e-05
6.72884e-05
6.65685e-05
6.58647e-05
6.51844e-05
6.4539e-05
6.39446e-05
6.32122e-05
6.23138e-05
6.15058e-05
6.08174e-05
6.02963e-05
5.99818e-05
5.99075e-05
6.00366e-05
6.03028e-05
6.06427e-05
6.09833e-05
6.12379e-05
6.13414e-05
6.12522e-05
6.09523e-05
6.04415e-05
5.97316e-05
5.88452e-05
5.78118e-05
5.66627e-05
5.54309e-05
5.41458e-05
5.28306e-05
5.15011e-05
5.01684e-05
4.88347e-05
4.74941e-05
4.61333e-05
4.47374e-05
4.32825e-05
4.17565e-05
4.02274e-05
3.89736e-05
3.85376e-05
3.965e-05
4.30503e-05
4.87774e-05
5.54009e-05
5.80753e-05
5.82347e-05
5.84078e-05
5.86004e-05
5.87967e-05
5.89748e-05
5.9116e-05
5.92085e-05
5.92471e-05
5.9232e-05
5.91671e-05