/*--------------------------------*- C++ -*----------------------------------*\
| =========                 |                                                 |
| \\      /  F ield         | OpenFOAM: The Open Source CFD Toolbox           |
|  \\    /   O peration     | Version:  2306                                  |
|   \\  /    A nd           | Website:  www.openfoam.com                      |
|    \\/     M anipulation  |                                                 |
\*---------------------------------------------------------------------------*/
FoamFile
{
    version     2.0;
    format      ascii;
    arch        "LSB;label=32;scalar=64";
    class       volScalarField;
    location    "1000";
    object      omega;
}
// * * * * * * * * * * * * * * * * * * * * * * * * * * * * * * * * * * * * * //

dimensions      [0 0 -1 0 0 0 0];

internalField   nonuniform List<scalar> 
25600
(
5751.85
6076.67
6315.6
6467.94
6550.12
6581.9
6580.15
6557.36
6522.13
6480.05
6434.58
6387.86
6341.47
6296
6251.74
6208.97
6168.17
6129.86
6093.94
6060.16
6028.55
5999.29
5972.68
5948.91
5928.06
5910.16
5895.17
5882.95
5873.26
5865.8
5860.23
5856.27
5853.64
5852.13
5851.62
5852.02
5853.37
5855.46
5859.62
5861.77
461.229
947.052
1325.57
1613.02
1821.72
1965.38
2059.13
2117.3
2151.94
2172.32
2185.05
2195.16
2205.04
2216.16
2228.73
2243.57
2263.93
2295.89
2344.99
2410.32
2483.87
2547.7
2599.41
2640.11
2671.2
2693.79
2708.74
2716.86
2719.31
2717.12
2711.16
2702.15
2690.69
2677.2
2662.03
2645.29
2627.6
2609.37
2585.58
2578.68
164.919
208.242
269.235
334.67
397.991
456.045
507.45
551.885
589.712
621.725
648.911
672.286
692.859
712.042
733.026
758.267
788.052
821.017
857.051
896.833
940.358
986.068
1032.15
1077.5
1120.54
1159.51
1195.99
1228.14
1256.14
1280.4
1301.26
1318.95
1333.68
1345.64
1354.98
1361.83
1366.31
1368.31
1368.24
1361.52
158.659
159.411
165.311
175.409
188.188
202.402
217.14
231.774
245.894
259.232
271.646
283.142
293.763
303.695
313.572
324.017
335.275
347.263
359.825
372.954
386.744
401.285
416.63
432.508
449.969
472.06
498.108
526.028
554.275
582.024
608.88
634.717
659.207
681.925
701.981
719.292
734.442
747.71
759.536
767.664
159.002
157.169
156.129
156.296
157.737
160.294
163.716
167.741
172.144
176.74
181.383
185.973
190.443
194.752
198.913
202.981
207.028
211.093
215.226
219.446
223.768
228.214
232.831
237.586
242.786
249.259
256.991
265.659
274.988
284.776
294.879
305.206
315.667
326.245
337.985
351.231
365.39
379.675
393.64
406.069
159.052
157.179
155.414
153.889
152.736
152.035
151.802
152.006
152.589
153.479
154.605
155.901
157.311
158.788
160.298
161.816
163.332
164.844
166.357
167.876
169.407
170.953
172.525
174.124
175.768
177.533
179.496
181.697
184.144
186.829
189.731
192.829
196.096
199.529
203.479
208.11
213.291
218.798
224.415
229.867
159.053
157.192
155.38
153.632
151.987
150.485
149.163
148.046
147.142
146.446
145.944
145.616
145.436
145.381
145.427
145.552
145.738
145.972
146.243
146.544
146.87
147.216
147.581
147.963
148.362
148.782
149.235
149.736
150.3
150.938
151.656
152.457
153.34
154.3
155.355
156.541
157.873
159.346
160.917
162.571
159.051
157.19
155.375
153.606
151.888
150.23
148.645
147.148
145.75
144.461
143.286
142.225
141.274
140.429
139.68
139.019
138.434
137.917
137.459
137.052
136.689
136.363
136.071
135.807
135.568
135.353
135.16
134.991
134.847
134.734
134.654
134.61
134.604
134.637
134.709
134.823
134.982
135.187
135.431
135.712
159.05
157.187
155.37
153.598
151.87
150.187
148.55
146.963
145.431
143.958
142.548
141.206
139.933
138.731
137.599
136.535
135.536
134.599
133.719
132.893
132.115
131.381
130.688
130.031
129.407
128.813
128.247
127.707
127.191
126.7
126.233
125.791
125.374
124.982
124.614
124.271
123.952
123.654
123.376
123.113
159.049
157.184
155.365
153.591
151.861
150.173
148.527
146.922
145.358
143.836
142.358
140.924
139.537
138.197
136.906
135.663
134.469
133.323
132.223
131.169
130.158
129.189
128.258
127.364
126.504
125.676
124.878
124.109
123.366
122.649
121.955
121.286
120.639
120.014
119.41
118.827
118.263
117.716
117.185
116.667
159.048
157.183
155.362
153.586
151.854
150.164
148.515
146.906
145.335
143.801
142.304
140.845
139.422
138.036
136.687
135.375
134.101
132.864
131.664
130.5
129.372
128.278
127.219
126.192
125.197
124.231
123.295
122.386
121.504
120.647
119.814
119.005
118.218
117.452
116.708
115.983
115.276
114.588
113.914
113.255
159.048
157.181
155.359
153.582
151.848
150.156
148.506
146.894
145.32
143.783
142.281
140.814
139.38
137.98
136.612
135.276
133.972
132.699
131.458
130.247
129.066
127.915
126.792
125.698
124.632
123.593
122.58
121.592
120.629
119.69
118.773
117.88
117.008
116.156
115.325
114.514
113.721
112.945
112.186
111.442
159.048
157.179
155.356
153.576
151.841
150.147
148.494
146.88
145.304
143.764
142.259
140.789
139.351
137.945
136.571
135.226
133.912
132.626
131.368
130.138
128.935
127.759
126.609
125.484
124.384
123.308
122.256
121.227
120.221
119.237
118.274
117.332
116.411
115.51
114.628
113.764
112.919
112.091
111.28
110.484
159.046
157.175
155.348
153.566
151.827
150.131
148.475
146.858
145.278
143.735
142.228
140.754
139.313
137.904
136.526
135.177
133.858
132.567
131.302
130.065
128.853
127.667
126.504
125.366
124.251
123.158
122.088
121.039
120.012
119.005
118.018
117.051
116.104
115.175
114.265
113.372
112.497
111.639
110.796
109.969
159.043
157.166
155.333
153.545
151.801
150.099
148.438
146.816
145.232
143.686
142.174
140.697
139.253
137.84
136.459
135.108
133.785
132.491
131.223
129.982
128.766
127.575
126.408
125.264
124.143
123.043
121.965
120.908
119.871
118.853
117.856
116.877
115.916
114.973
114.049
113.141
112.25
111.375
110.516
109.672
159.037
157.149
155.306
153.508
151.755
150.046
148.377
146.749
145.16
143.607
142.091
140.609
139.161
137.745
136.361
135.007
133.682
132.385
131.115
129.872
128.654
127.461
126.292
125.146
124.022
122.92
121.839
120.778
119.737
118.716
117.714
116.73
115.764
114.816
113.885
112.97
112.072
111.19
110.323
109.47
159.029
157.125
155.268
153.458
151.693
149.973
148.295
146.658
145.061
143.502
141.98
140.493
139.04
137.621
136.233
134.875
133.548
132.249
130.978
129.733
128.514
127.32
126.15
125.003
123.879
122.776
121.694
120.633
119.592
118.57
117.567
116.582
115.615
114.665
113.732
112.815
111.915
111.03
110.16
109.304
159.02
157.098
155.224
153.399
151.621
149.889
148.201
146.555
144.949
143.383
141.855
140.362
138.905
137.481
136.09
134.73
133.4
132.099
130.827
129.581
128.361
127.167
125.997
124.85
123.726
122.623
121.542
120.482
119.441
118.42
117.417
116.433
115.466
114.517
113.584
112.668
111.768
110.883
110.013
109.157
159.01
157.071
155.181
153.342
151.552
149.809
148.111
146.457
144.845
143.272
141.738
140.242
138.78
137.354
135.96
134.598
133.266
131.964
130.69
129.444
128.224
127.029
125.859
124.712
123.589
122.487
121.407
120.347
119.308
118.287
117.286
116.303
115.337
114.389
113.458
112.543
111.643
110.759
109.89
109.035
159.002
157.049
155.148
153.3
151.502
149.752
148.049
146.39
144.774
143.198
141.662
140.162
138.699
137.271
135.875
134.512
133.18
131.877
130.603
129.356
128.136
126.942
125.772
124.626
123.502
122.401
121.322
120.263
119.224
118.204
117.204
116.221
115.257
114.31
113.379
112.465
111.567
110.684
109.815
108.962
159.002
157.049
155.148
153.3
151.502
149.752
148.049
146.39
144.774
143.198
141.662
140.162
138.699
137.271
135.875
134.512
133.18
131.877
130.603
129.356
128.136
126.942
125.772
124.626
123.502
122.401
121.322
120.263
119.224
118.204
117.204
116.222
115.257
114.31
113.379
112.465
111.567
110.684
109.816
108.962
159.01
157.071
155.181
153.342
151.552
149.809
148.111
146.457
144.845
143.272
141.738
140.242
138.78
137.354
135.96
134.598
133.266
131.964
130.69
129.444
128.224
127.029
125.859
124.712
123.589
122.487
121.407
120.347
119.307
118.287
117.286
116.303
115.337
114.389
113.458
112.543
111.643
110.76
109.891
109.036
159.02
157.098
155.224
153.399
151.621
149.889
148.201
146.555
144.949
143.383
141.855
140.362
138.905
137.481
136.09
134.73
133.4
132.099
130.827
129.581
128.361
127.167
125.996
124.85
123.725
122.623
121.542
120.481
119.441
118.419
117.417
116.432
115.466
114.516
113.584
112.668
111.767
110.882
110.012
109.157
159.029
157.125
155.268
153.458
151.693
149.973
148.295
146.658
145.061
143.502
141.98
140.493
139.04
137.621
136.233
134.875
133.548
132.249
130.978
129.733
128.514
127.32
126.15
125.003
123.879
122.776
121.694
120.633
119.592
118.569
117.566
116.581
115.614
114.664
113.731
112.814
111.913
111.028
110.158
109.303
159.037
157.149
155.306
153.508
151.755
150.046
148.377
146.749
145.16
143.607
142.091
140.609
139.161
137.745
136.361
135.007
133.682
132.385
131.115
129.872
128.654
127.461
126.292
125.145
124.021
122.919
121.838
120.777
119.737
118.715
117.713
116.729
115.762
114.814
113.882
112.967
112.069
111.186
110.319
109.467
159.043
157.166
155.333
153.545
151.801
150.099
148.438
146.816
145.232
143.686
142.174
140.697
139.253
137.84
136.459
135.108
133.785
132.491
131.223
129.982
128.766
127.575
126.408
125.264
124.142
123.043
121.964
120.907
119.87
118.852
117.854
116.875
115.914
114.971
114.046
113.137
112.246
111.371
110.513
109.67
159.046
157.175
155.348
153.566
151.827
150.131
148.475
146.858
145.278
143.735
142.228
140.754
139.313
137.904
136.526
135.177
133.858
132.566
131.302
130.065
128.853
127.666
126.504
125.366
124.25
123.158
122.087
121.038
120.011
119.004
118.017
117.049
116.101
115.172
114.262
113.369
112.495
111.637
110.796
109.973
159.048
157.179
155.356
153.576
151.841
150.147
148.494
146.88
145.304
143.764
142.259
140.789
139.351
137.945
136.571
135.226
133.911
132.626
131.368
130.138
128.935
127.759
126.608
125.483
124.383
123.307
122.255
121.226
120.22
119.235
118.273
117.331
116.41
115.509
114.627
113.765
112.922
112.097
111.291
110.502
159.048
157.181
155.359
153.582
151.848
150.156
148.506
146.894
145.32
143.783
142.281
140.814
139.38
137.98
136.612
135.276
133.972
132.699
131.458
130.247
129.066
127.914
126.792
125.698
124.632
123.592
122.579
121.591
120.628
119.689
118.774
117.881
117.01
116.16
115.332
114.524
113.736
112.968
112.22
111.492
159.048
157.183
155.362
153.586
151.854
150.164
148.515
146.906
145.335
143.801
142.304
140.845
139.422
138.036
136.687
135.375
134.101
132.864
131.663
130.499
129.371
128.278
127.219
126.192
125.197
124.231
123.295
122.387
121.505
120.649
119.818
119.011
118.227
117.465
116.726
116.01
115.315
114.642
113.991
113.362
159.049
157.184
155.365
153.591
151.861
150.173
148.527
146.922
145.358
143.836
142.358
140.924
139.537
138.197
136.905
135.663
134.469
133.323
132.223
131.169
130.158
129.189
128.258
127.364
126.505
125.677
124.88
124.112
123.371
122.656
121.966
121.3
120.659
120.043
119.451
118.883
118.341
117.824
117.335
116.873
159.05
157.187
155.37
153.598
151.87
150.187
148.55
146.963
145.431
143.958
142.548
141.206
139.933
138.731
137.599
136.535
135.536
134.599
133.719
132.893
132.115
131.382
130.689
130.033
129.41
128.817
128.253
127.715
127.202
126.716
126.255
125.821
125.415
125.038
124.692
124.377
124.097
123.854
123.651
123.491
159.051
157.19
155.375
153.606
151.888
150.23
148.645
147.148
145.75
144.461
143.286
142.225
141.274
140.429
139.68
139.019
138.434
137.917
137.459
137.053
136.69
136.365
136.073
135.811
135.574
135.361
135.171
135.006
134.868
134.763
134.694
134.664
134.679
134.739
134.849
135.015
135.246
135.552
135.941
136.418
159.053
157.192
155.38
153.632
151.987
150.485
149.163
148.046
147.142
146.446
145.944
145.616
145.436
145.381
145.427
145.552
145.738
145.973
146.244
146.546
146.872
147.22
147.586
147.971
148.373
148.797
149.255
149.764
150.338
150.99
151.729
152.557
153.479
154.492
155.627
156.928
158.428
160.137
162.054
164.169
159.052
157.179
155.414
153.889
152.736
152.035
151.801
152.006
152.589
153.479
154.605
155.901
157.311
158.788
160.298
161.816
163.333
164.845
166.359
167.879
169.411
170.96
172.534
174.138
175.787
177.561
179.537
181.756
184.229
186.949
189.901
193.07
196.433
200.023
204.245
209.26
214.951
221.156
227.742
234.62
159.002
157.169
156.129
156.296
157.737
160.294
163.716
167.741
172.144
176.74
181.383
185.973
190.443
194.753
198.913
202.982
207.03
211.096
215.231
219.454
223.78
228.23
232.855
237.62
242.843
249.351
257.13
265.86
275.274
285.181
295.448
306.004
316.772
327.832
340.375
354.671
370.103
386.057
402.129
418.13
158.659
159.411
165.311
175.409
188.188
202.402
217.14
231.774
245.894
259.233
271.646
283.143
293.765
303.697
313.576
324.023
335.285
347.277
359.845
372.984
386.788
401.349
416.725
432.641
450.189
472.411
498.609
526.706
555.17
583.199
610.414
636.723
661.792
685.189
706.023
724.396
740.996
756.37
770.731
784.497
164.919
208.242
269.235
334.67
397.991
456.046
507.451
551.886
589.714
621.728
648.915
672.291
692.867
712.053
733.043
758.293
788.089
821.068
857.126
896.941
940.512
986.283
1032.45
1077.9
1121.06
1160.19
1196.87
1229.27
1257.59
1282.25
1303.59
1321.88
1337.36
1350.26
1360.77
1369.1
1375.44
1380.09
1383.18
1385.76
461.229
947.052
1325.57
1613.02
1821.72
1965.38
2059.13
2117.31
2151.95
2172.33
2185.06
2195.17
2205.05
2216.19
2228.76
2243.62
2264
2296
2345.17
2410.59
2484.24
2548.19
2600.07
2640.98
2672.33
2695.25
2710.6
2719.21
2722.29
2720.9
2715.97
2708.28
2698.53
2687.3
2675.07
2662.22
2649.08
2635.89
2622.92
2609.7
5751.85
6076.67
6315.6
6467.94
6550.12
6581.9
6580.15
6557.36
6522.13
6480.04
6434.58
6387.86
6341.46
6295.99
6251.72
6208.95
6168.14
6129.81
6093.87
6060.06
6028.41
5999.1
5972.42
5948.56
5927.59
5909.53
5894.36
5881.9
5871.91
5864.06
5858
5853.39
5849.94
5847.36
5845.41
5843.93
5842.77
5841.77
5840.83
5839.82
4311.94
3247.14
2642.57
2279.75
2024.08
1823.55
1659.14
1521.83
1405.72
1306.32
1220.31
1145.13
1078.82
1019.88
967.14
919.681
876.77
837.808
802.288
769.781
739.939
712.474
687.143
663.735
642.063
621.961
603.284
585.903
569.699
554.568
540.415
527.152
514.7
502.989
491.953
481.531
471.671
462.323
453.441
444.986
436.92
429.21
421.825
414.738
407.925
401.363
395.033
388.918
383.003
377.272
371.712
366.313
361.065
355.954
350.982
346.139
341.417
336.812
332.317
327.933
323.658
319.488
315.42
311.449
307.571
303.783
300.08
296.461
292.921
289.457
286.068
282.749
279.5
276.317
273.198
270.14
267.141
264.199
261.312
258.478
255.695
252.961
250.273
247.629
245.028
242.467
239.945
237.461
235.011
232.595
230.21
227.856
225.53
223.232
220.96
218.712
216.487
214.286
212.105
209.946
207.807
205.688
203.589
201.51
199.449
197.408
195.387
193.387
191.41
189.46
187.542
185.659
183.815
182.01
180.244
178.517
176.828
175.177
173.563
171.985
170.444
168.939
167.468
166.031
164.627
163.254
161.912
160.599
159.314
158.057
156.828
155.627
154.454
153.31
152.194
151.106
150.046
149.015
148.011
147.033
146.083
145.158
144.259
143.385
142.535
141.708
140.906
140.125
139.367
138.631
137.915
137.22
136.545
135.889
135.252
134.633
134.032
133.448
132.881
132.329
131.794
131.273
130.767
130.275
129.796
129.33
128.877
128.435
128.005
127.586
127.177
126.779
126.389
126.009
125.637
125.273
124.916
124.565
124.221
123.882
123.547
123.218
122.892
122.569
122.251
121.936
121.624
121.317
121.014
120.716
120.424
120.139
119.863
119.597
119.343
119.103
118.881
118.683
118.521
118.407
118.356
118.379
118.478
118.641
118.837
119.026
119.161
119.203
119.127
118.925
118.598
118.157
117.618
116.992
116.289
115.514
114.668
113.749
112.752
111.67
110.496
109.224
107.846
106.358
104.758
103.043
101.214
99.2679
97.197
94.975
92.5398
89.7791
86.5773
82.933
79.1292
75.7086
73.0744
71.2098
69.8531
68.7547
67.7725
66.8491
65.9699
65.1386
64.3645
63.6561
63.0181
62.4518
61.956
61.5276
61.1618
60.8532
60.5957
60.3829
60.2085
60.0666
59.9515
59.8578
59.7808
59.7163
59.6606
59.6105
59.5632
59.5166
59.4687
59.4181
59.3636
59.3043
59.2394
59.1684
59.0911
59.0071
58.9165
58.819
58.715
58.6043
58.4873
58.364
58.2348
58.1
57.9596
57.8142
57.6638
57.509
57.3498
57.1868
57.0202
56.8502
56.6774
56.5019
56.3242
56.1445
55.9633
55.7809
55.5976
55.4136
55.2302
55.0432
54.8772
54.5964
2429.14
2265.38
2134.21
2026.93
1923.5
1813.78
1698.92
1585.05
1477.65
1379.57
1291.37
1212.43
1141.72
1078.25
1021.13
969.575
922.892
880.486
841.839
806.507
774.11
744.328
716.883
691.535
668.074
646.312
626.087
607.256
589.688
573.271
557.902
543.488
529.947
517.204
505.191
493.844
483.109
472.933
463.27
454.077
445.314
436.946
428.941
421.27
413.907
406.83
400.015
393.443
387.097
380.962
375.024
369.271
363.693
358.277
353.014
347.899
342.924
338.088
333.386
328.814
324.371
320.049
315.843
311.747
307.757
303.868
300.076
296.377
292.766
289.241
285.797
282.433
279.145
275.93
272.786
269.708
266.696
263.746
260.856
258.024
255.248
252.524
249.852
247.227
244.649
242.115
239.624
237.172
234.759
232.381
230.038
227.726
225.446
223.194
220.97
218.771
216.596
214.445
212.316
210.208
208.12
206.052
204.003
201.973
199.961
197.966
195.988
194.027
192.084
190.159
188.256
186.379
184.53
182.715
180.934
179.191
177.484
175.812
174.177
172.577
171.013
169.483
167.987
166.524
165.092
163.691
162.32
160.976
159.66
158.372
157.111
155.879
154.676
153.501
152.356
151.239
150.151
149.09
148.058
147.053
146.074
145.122
144.196
143.295
142.418
141.566
140.738
139.932
139.149
138.388
137.648
136.929
136.231
135.552
134.892
134.251
133.627
133.022
132.433
131.861
131.304
130.763
130.236
129.724
129.225
128.739
128.266
127.805
127.355
126.917
126.488
126.07
125.661
125.261
124.869
124.485
124.107
123.737
123.372
123.013
122.659
122.309
121.963
121.621
121.282
120.948
120.616
120.289
119.965
119.646
119.332
119.025
118.724
118.431
118.148
117.878
117.624
117.392
117.193
117.037
116.938
116.91
116.957
117.073
117.233
117.4
117.53
117.579
117.518
117.331
117.016
116.58
116.037
115.401
114.682
113.89
113.028
112.096
111.092
110.011
108.846
107.59
106.239
104.787
103.229
101.564
99.7844
97.8818
95.8338
93.5925
91.0728
88.1711
84.8699
81.349
78.0113
75.255
73.1946
71.6738
70.4619
69.392
68.3827
67.4062
66.4623
65.5632
64.723
63.9529
63.2594
62.6447
62.1078
61.6453
61.2522
60.9224
60.6492
60.426
60.2457
60.1019
59.9883
59.8993
59.8296
59.7747
59.7304
59.6932
59.6601
59.6287
59.5967
59.5627
59.5251
59.4829
59.4353
59.3817
59.3216
59.2548
59.181
59.1001
59.0122
58.9173
58.8154
58.7069
58.5918
58.4703
58.3428
58.2093
58.0703
57.926
57.7766
57.6225
57.4639
57.3013
57.1349
56.9651
56.7921
56.6165
56.4385
56.2584
56.0767
55.8936
55.7103
55.5225
55.3558
55.0711
1362.4
1360.21
1356.56
1358.86
1370.06
1385.37
1395.36
1391.25
1369.04
1330.18
1279.54
1222.75
1164.42
1107.48
1053.44
1002.9
955.997
912.676
872.76
835.997
802.113
770.846
741.955
715.218
690.432
667.412
645.993
626.024
607.371
589.916
573.555
558.192
543.742
530.129
517.283
505.14
493.645
482.746
472.394
462.545
453.16
444.201
435.636
427.435
419.57
412.018
404.755
397.761
391.017
384.507
378.216
372.131
366.241
360.534
354.999
349.628
344.413
339.356
334.452
329.696
325.081
320.6
316.247
312.018
307.907
303.909
300.017
296.228
292.537
288.941
285.437
282.019
278.686
275.432
272.255
269.152
266.121
263.158
260.262
257.428
254.655
251.939
249.278
246.671
244.114
241.605
239.142
236.722
234.343
232.004
229.701
227.433
225.198
222.993
220.817
218.668
216.545
214.445
212.368
210.312
208.277
206.261
204.265
202.286
200.324
198.378
196.448
194.532
192.631
190.744
188.873
187.017
185.181
183.367
181.579
179.823
178.097
176.406
174.749
173.125
171.536
169.98
168.456
166.965
165.504
164.073
162.67
161.294
159.945
158.623
157.33
156.066
154.831
153.625
152.448
151.301
150.182
149.092
148.029
146.994
145.986
145.004
144.049
143.119
142.214
141.333
140.476
139.643
138.833
138.044
137.278
136.533
135.808
135.104
134.419
133.753
133.106
132.476
131.864
131.268
130.688
130.124
129.575
129.041
128.52
128.013
127.518
127.036
126.565
126.105
125.656
125.217
124.787
124.366
123.954
123.549
123.152
122.761
122.376
121.997
121.623
121.254
120.889
120.529
120.171
119.818
119.468
119.121
118.779
118.44
118.106
117.777
117.454
117.138
116.83
116.53
116.243
115.975
115.732
115.527
115.372
115.283
115.267
115.323
115.435
115.571
115.69
115.747
115.708
115.549
115.261
114.847
114.318
113.688
112.969
112.173
111.307
110.375
109.376
108.307
107.164
105.94
104.629
103.224
101.718
100.103
98.3668
96.4894
94.4343
92.1411
89.5339
86.5867
83.4215
80.317
77.5936
75.4188
73.7485
72.4188
71.2654
70.1846
69.1276
68.0831
67.0613
66.0808
65.1609
64.3157
63.5539
62.8787
62.2892
61.7821
61.3518
60.9919
60.6951
60.454
60.2612
60.1096
59.9924
59.9036
59.8373
59.7886
59.7529
59.7265
59.7059
59.6883
59.6715
59.6535
59.6327
59.6078
59.578
59.5423
59.5004
59.4516
59.3958
59.3328
59.2625
59.1848
59.0998
59.0077
58.9084
58.8022
58.6893
58.5698
58.444
58.3122
58.1745
58.0313
57.8828
57.7294
57.5714
57.4091
57.2428
57.0729
56.8998
56.7237
56.5452
56.3644
56.1826
55.9954
55.8287
55.5415
777.76
788.309
798.428
809.801
825.7
849.421
882.863
924.894
970.796
1013.39
1045.44
1062.05
1061.92
1047.08
1021.46
989.301
954.085
918.143
882.846
848.878
816.586
786.126
757.537
730.777
705.756
682.365
660.483
639.992
620.779
602.741
585.782
569.816
554.76
540.545
527.104
514.377
502.311
490.856
479.965
469.595
459.706
450.263
441.234
432.589
424.3
416.344
408.698
401.34
394.252
387.416
380.817
374.441
368.277
362.312
356.536
350.938
345.512
340.25
335.154
330.217
325.431
320.792
316.294
311.931
307.698
303.587
299.593
295.712
291.94
288.273
284.707
281.236
277.856
274.564
271.356
268.229
265.181
262.208
259.307
256.474
253.706
251.001
248.357
245.77
243.238
240.758
238.327
235.944
233.605
231.308
229.051
226.831
224.647
222.494
220.372
218.279
216.211
214.169
212.149
210.152
208.175
206.218
204.279
202.357
200.451
198.559
196.682
194.817
192.966
191.127
189.299
187.483
185.678
183.886
182.111
180.355
178.623
176.918
175.241
173.594
171.98
170.397
168.845
167.325
165.834
164.371
162.935
161.526
160.143
158.789
157.463
156.167
154.901
153.665
152.458
151.28
150.131
149.01
147.917
146.852
145.813
144.801
143.815
142.855
141.92
141.01
140.124
139.262
138.423
137.607
136.812
136.04
135.288
134.557
133.845
133.154
132.48
131.825
131.188
130.568
129.964
129.376
128.803
128.245
127.702
127.171
126.654
126.15
125.657
125.175
124.704
124.244
123.793
123.351
122.918
122.493
122.075
121.665
121.261
120.863
120.47
120.082
119.699
119.32
118.945
118.574
118.206
117.841
117.481
117.124
116.771
116.423
116.08
115.742
115.41
115.085
114.77
114.469
114.186
113.932
113.721
113.565
113.475
113.457
113.502
113.588
113.678
113.73
113.705
113.572
113.315
112.93
112.423
111.806
111.094
110.3
109.433
108.502
107.508
106.452
105.33
104.135
102.861
101.496
100.03
98.4493
96.734
94.8569
92.7776
90.45
87.8567
85.0804
82.3132
79.7854
77.6483
75.9234
74.5223
73.3139
72.1917
71.0887
69.9768
68.8574
67.7494
66.6786
65.6691
64.7392
63.8996
63.1548
62.5046
61.9453
61.471
61.0745
60.7481
60.4837
60.2732
60.1091
59.984
59.8913
59.8248
59.779
59.749
59.7307
59.7203
59.7147
59.7113
59.7079
59.7027
59.6943
59.6815
59.6634
59.6392
59.6085
59.5709
59.526
59.4737
59.4138
59.3464
59.2715
59.189
59.0991
59.002
58.8977
58.7865
58.6685
58.5441
58.4133
58.2765
58.1339
57.9859
57.8328
57.6748
57.5123
57.3457
57.1753
57.0015
56.8245
56.6457
56.4605
56.2954
56.0076
418.475
428.411
436.586
444.742
453.939
465.414
480.888
502.459
532.17
571.202
618.929
672.317
726.24
774.72
812.585
836.82
847.057
845.112
833.976
816.766
796.056
773.665
750.744
727.978
705.769
684.367
663.876
644.348
625.786
608.167
591.451
575.592
560.538
546.244
532.662
519.748
507.463
495.76
484.601
473.947
463.767
454.029
444.705
435.768
427.192
418.956
411.038
403.419
396.08
389.004
382.176
375.583
369.213
363.053
357.094
351.324
345.736
340.319
335.067
329.977
325.044
320.266
315.638
311.152
306.802
302.584
298.495
294.53
290.684
286.951
283.327
279.807
276.386
273.062
269.83
266.688
263.63
260.654
257.755
254.93
252.176
249.491
246.871
244.314
241.816
239.374
236.985
234.647
232.357
230.113
227.912
225.751
223.627
221.537
219.479
217.45
215.45
213.475
211.524
209.596
207.688
205.8
203.93
202.075
200.233
198.405
196.589
194.786
192.993
191.212
189.439
187.675
185.918
184.168
182.427
180.697
178.98
177.278
175.596
173.935
172.301
170.692
169.113
167.562
166.04
164.546
163.077
161.635
160.221
158.836
157.481
156.156
154.861
153.596
152.36
151.153
149.975
148.824
147.701
146.606
145.537
144.495
143.479
142.489
141.524
140.583
139.668
138.776
137.908
137.063
136.24
135.439
134.659
133.9
133.162
132.443
131.744
131.062
130.399
129.754
129.125
128.512
127.915
127.333
126.765
126.212
125.671
125.144
124.628
124.125
123.632
123.15
122.678
122.215
121.761
121.316
120.879
120.448
120.025
119.609
119.198
118.792
118.391
117.995
117.603
117.215
116.83
116.449
116.071
115.697
115.327
114.961
114.599
114.241
113.888
113.541
113.201
112.87
112.554
112.26
111.999
111.781
111.619
111.523
111.489
111.505
111.542
111.564
111.533
111.412
111.178
110.819
110.335
109.734
109.03
108.237
107.367
106.432
105.438
104.386
103.276
102.1
100.851
99.5149
98.0776
96.5205
94.8232
92.9626
90.9177
88.6851
86.3164
83.9407
81.7109
79.7403
78.0719
76.6736
75.4592
74.3381
73.2363
72.1084
70.9399
69.742
68.5419
67.3725
66.2638
65.2386
64.3107
63.4865
62.7662
62.146
61.6197
61.1794
60.8167
60.5227
60.2889
60.1069
59.9689
59.8678
59.7968
59.7501
59.7224
59.709
59.7059
59.7096
59.7174
59.7266
59.7353
59.7419
59.7449
59.7433
59.7362
59.723
59.7031
59.6761
59.6418
59.5999
59.5504
59.4931
59.428
59.3552
59.2747
59.1866
59.0911
58.9882
58.8782
58.7613
58.6376
58.5075
58.3711
58.2288
58.0808
57.9275
57.7691
57.6061
57.4389
57.2675
57.0933
56.9118
56.7496
56.4635
234.796
241.378
248.591
254.689
260.109
265.528
271.563
278.925
288.57
301.697
319.73
344.15
376.019
415.459
461.213
510.348
558.883
602.659
638.307
663.921
679.242
685.358
684.11
677.501
667.293
654.849
641.129
626.767
612.174
597.621
583.286
569.281
555.678
542.517
529.82
517.596
505.845
494.541
483.671
473.221
463.176
453.519
444.233
435.3
426.702
418.423
410.447
402.759
395.345
388.189
381.28
374.604
368.152
361.914
355.878
350.036
344.38
338.899
333.583
328.426
323.424
318.571
313.864
309.299
304.872
300.581
296.424
292.398
288.496
284.713
281.043
277.486
274.039
270.696
267.453
264.305
261.247
258.277
255.391
252.585
249.857
247.203
244.619
242.103
239.65
237.257
234.923
232.642
230.415
228.236
226.105
224.015
221.964
219.949
217.967
216.018
214.098
212.205
210.337
208.493
206.67
204.866
203.079
201.304
199.542
197.791
196.05
194.32
192.6
190.889
189.184
187.484
185.789
184.098
182.412
180.729
179.051
177.379
175.715
174.063
172.425
170.804
169.204
167.627
166.075
164.549
163.051
161.58
160.139
158.729
157.349
156
154.68
153.389
152.128
150.894
149.689
148.51
147.359
146.235
145.137
144.066
143.021
142.001
141.007
140.037
139.092
138.171
137.274
136.4
135.549
134.72
133.912
133.126
132.36
131.614
130.888
130.181
129.491
128.82
128.165
127.528
126.906
126.299
125.708
125.13
124.567
124.016
123.478
122.952
122.437
121.934
121.44
120.957
120.483
120.017
119.56
119.111
118.67
118.235
117.806
117.383
116.965
116.552
116.144
115.739
115.338
114.941
114.548
114.158
113.772
113.389
113.01
112.635
112.263
111.895
111.533
111.178
110.833
110.504
110.199
109.929
109.705
109.537
109.427
109.367
109.339
109.314
109.256
109.127
108.899
108.553
108.084
107.494
106.792
105.993
105.111
104.161
103.154
102.094
100.983
99.8144
98.5811
97.2706
95.8691
94.3616
92.7345
90.9802
89.1073
87.1511
85.1823
83.2934
81.57
80.0536
78.7415
77.5864
76.521
75.4766
74.3968
73.2488
72.0273
70.7513
69.4556
68.1805
66.9631
65.8316
64.804
63.889
63.0878
62.3969
61.8095
61.3171
60.9105
60.58
60.3164
60.1106
59.9543
59.8397
59.7595
59.7076
59.678
59.6658
59.6666
59.6766
59.6927
59.7121
59.7324
59.752
59.7691
59.7825
59.7912
59.7944
59.7914
59.7817
59.7649
59.7407
59.7089
59.6693
59.6219
59.5665
59.5032
59.432
59.353
59.2662
59.1718
59.0699
58.9607
58.8444
58.7211
58.5912
58.4549
58.3124
58.1641
58.0103
57.8513
57.6873
57.5196
57.3437
57.1863
56.9044
164.002
166.227
169.325
172.59
175.578
178.345
181.077
183.976
187.271
191.27
196.38
203.157
212.281
224.592
241.033
262.385
289.044
320.775
356.557
394.572
432.242
467.061
496.996
520.788
538.036
549.067
554.699
555.957
553.859
549.29
542.959
535.406
527.03
518.123
508.899
499.516
490.092
480.718
471.453
462.339
453.407
444.68
436.172
427.892
419.845
412.031
404.449
397.096
389.967
383.058
376.363
369.874
363.586
357.493
351.587
345.862
340.313
334.93
329.706
324.631
319.703
314.91
310.25
305.722
301.326
297.058
292.916
288.898
285.001
281.222
277.557
274.007
270.567
267.234
264.003
260.87
257.83
254.884
252.028
249.259
246.572
243.962
241.428
238.964
236.568
234.238
231.97
229.762
227.61
225.512
223.463
221.456
219.49
217.563
215.673
213.817
211.993
210.198
208.43
206.687
204.966
203.264
201.576
199.899
198.233
196.576
194.929
193.29
191.659
190.034
188.412
186.792
185.173
183.557
181.941
180.325
178.707
177.088
175.47
173.853
172.239
170.631
169.031
167.444
165.872
164.322
162.801
161.311
159.853
158.426
157.029
155.662
154.323
153.013
151.73
150.474
149.245
148.043
146.867
145.716
144.592
143.494
142.422
141.374
140.352
139.355
138.383
137.434
136.509
135.608
134.729
133.873
133.038
132.225
131.433
130.66
129.908
129.175
128.46
127.763
127.083
126.421
125.774
125.144
124.528
123.927
123.34
122.767
122.206
121.658
121.122
120.596
120.082
119.578
119.084
118.599
118.123
117.655
117.195
116.742
116.296
115.856
115.422
114.992
114.568
114.148
113.732
113.32
112.911
112.506
112.105
111.707
111.312
110.921
110.533
110.147
109.766
109.389
109.019
108.661
108.32
108.006
107.727
107.494
107.313
107.182
107.09
107.013
106.918
106.772
106.543
106.207
105.749
105.165
104.46
103.648
102.745
101.77
100.739
99.6612
98.5417
97.3797
96.1705
94.9068
93.5809
92.1883
90.7272
89.1982
87.6197
86.0312
84.4886
83.0451
81.742
80.5869
79.5573
78.6076
77.68
76.7163
75.6694
74.5132
73.248
71.8987
70.5071
69.1214
67.7864
66.5375
65.3979
64.3796
63.4855
62.7126
62.0538
61.4999
61.0408
60.6661
60.3655
60.1294
59.9486
59.8148
59.7203
59.6582
59.6223
59.6072
59.6081
59.6209
59.6421
59.6686
59.6979
59.728
59.757
59.7834
59.8062
59.8243
59.8369
59.8433
59.8432
59.836
59.8214
59.7992
59.7692
59.7313
59.6855
59.6315
59.5695
59.4995
59.4215
59.3357
59.242