/*--------------------------------*- C++ -*----------------------------------*\
| =========                 |                                                 |
| \\      /  F ield         | OpenFOAM: The Open Source CFD Toolbox           |
|  \\    /   O peration     | Version:  2306                                  |
|   \\  /    A nd           | Website:  www.openfoam.com                      |
|    \\/     M anipulation  |                                                 |
\*---------------------------------------------------------------------------*/
FoamFile
{
    version     2.0;
    format      ascii;
    arch        "LSB;label=32;scalar=64";
    class       volScalarField;
    location    "1000";
    object      p;
}
// * * * * * * * * * * * * * * * * * * * * * * * * * * * * * * * * * * * * * //

dimensions      [0 2 -2 0 0 0 0];

internalField   nonuniform List<scalar> 
25600
(
-0.147192
-0.159149
-0.163012
-0.164128
-0.165728
-0.167698
-0.16959
-0.171375
-0.17315
-0.174942
-0.176734
-0.178522
-0.180326
-0.182162
-0.184012
-0.185854
-0.187661
-0.189432
-0.1912
-0.192978
-0.194735
-0.196439
-0.19807
-0.199624
-0.2011
-0.202501
-0.203823
-0.205072
-0.206268
-0.207427
-0.208559
-0.209675
-0.21079
-0.211915
-0.213063
-0.214249
-0.215509
-0.216902
-0.218466
-0.220572
-0.150082
-0.159341
-0.16284
-0.163979
-0.165547
-0.167498
-0.169389
-0.171181
-0.172966
-0.174768
-0.17657
-0.178387
-0.180229
-0.182083
-0.183935
-0.185773
-0.187583
-0.189364
-0.191137
-0.192909
-0.194655
-0.196351
-0.197981
-0.199535
-0.201015
-0.202422
-0.203749
-0.205002
-0.206202
-0.207364
-0.208499
-0.209619
-0.210736
-0.211864
-0.213014
-0.214204
-0.215466
-0.216854
-0.218396
-0.220249
-0.152142
-0.159306
-0.162755
-0.164079
-0.165669
-0.167609
-0.169496
-0.171288
-0.173071
-0.174864
-0.176654
-0.178461
-0.180289
-0.182117
-0.183943
-0.18576
-0.187558
-0.189336
-0.191101
-0.192858
-0.194587
-0.19627
-0.19789
-0.199439
-0.200913
-0.202313
-0.203638
-0.204898
-0.206108
-0.207277
-0.208419
-0.209543
-0.210664
-0.211793
-0.212942
-0.214129
-0.215381
-0.21674
-0.218216
-0.219814
-0.153875
-0.159354
-0.162712
-0.164179
-0.165758
-0.167652
-0.16951
-0.171291
-0.17307
-0.174861
-0.17664
-0.178436
-0.180261
-0.182088
-0.183912
-0.18573
-0.18753
-0.189306
-0.191066
-0.192817
-0.194538
-0.196213
-0.197827
-0.199371
-0.200843
-0.202241
-0.20357
-0.204839
-0.206057
-0.207232
-0.208376
-0.209503
-0.210624
-0.21175
-0.212894
-0.21407
-0.215302
-0.216621
-0.218014
-0.219433
-0.155298
-0.159504
-0.162707
-0.164271
-0.165835
-0.167693
-0.16954
-0.171318
-0.173096
-0.174887
-0.176668
-0.178461
-0.180279
-0.1821
-0.183919
-0.18573
-0.187526
-0.189293
-0.191044
-0.192787
-0.1945
-0.196165
-0.197772
-0.199312
-0.200782
-0.202182
-0.203515
-0.204788
-0.206008
-0.207185
-0.208332
-0.209461
-0.210583
-0.211708
-0.212845
-0.21401
-0.215221
-0.216499
-0.217814
-0.219098
-0.156553
-0.159691
-0.162698
-0.164348
-0.165906
-0.167731
-0.169565
-0.17134
-0.173113
-0.174901
-0.176684
-0.178476
-0.180289
-0.182105
-0.183918
-0.185724
-0.187516
-0.189281
-0.191027
-0.192761
-0.194465
-0.196123
-0.197723
-0.199259
-0.200728
-0.202128
-0.203463
-0.204738
-0.205961
-0.207143
-0.208293
-0.209425
-0.210546
-0.211667
-0.212799
-0.213952
-0.215141
-0.216376
-0.217621
-0.218796
-0.157581
-0.159941
-0.162727
-0.164429
-0.165977
-0.167766
-0.169585
-0.171355
-0.173123
-0.174907
-0.176691
-0.178482
-0.18029
-0.182103
-0.183912
-0.185713
-0.187501
-0.189264
-0.191007
-0.192735
-0.194431
-0.196082
-0.197677
-0.19921
-0.200677
-0.202077
-0.203414
-0.204692
-0.205918
-0.207103
-0.208257
-0.209389
-0.210509
-0.211626
-0.212751
-0.213891
-0.215057
-0.216252
-0.217435
-0.218523
-0.15843
-0.160232
-0.162786
-0.164508
-0.166048
-0.167801
-0.169603
-0.171368
-0.173132
-0.174912
-0.176695
-0.178485
-0.180289
-0.182098
-0.183903
-0.185701
-0.187484
-0.189245
-0.190985
-0.192706
-0.194396
-0.196041
-0.197632
-0.199162
-0.200627
-0.202028
-0.203366
-0.204646
-0.205876
-0.207064
-0.208219
-0.209352
-0.210471
-0.211584
-0.212701
-0.213828
-0.214971
-0.216127
-0.217256
-0.218275
-0.159138
-0.16055
-0.162855
-0.16458
-0.166115
-0.167837
-0.169622
-0.171381
-0.17314
-0.174916
-0.176698
-0.178486
-0.180287
-0.182092
-0.183894
-0.185687
-0.187467
-0.189226
-0.190962
-0.192678
-0.194362
-0.196002
-0.197589
-0.199116
-0.20058
-0.201981
-0.20332
-0.204603
-0.205835
-0.207025
-0.208182
-0.209315
-0.210432
-0.211541
-0.212649
-0.213762
-0.214882
-0.216004
-0.217085
-0.218048
-0.159733
-0.160861
-0.162939
-0.164649
-0.166181
-0.167873
-0.16964
-0.171393
-0.173148
-0.17492
-0.1767
-0.178487
-0.180284
-0.182086
-0.183884
-0.185674
-0.18745
-0.189206
-0.19094
-0.192651
-0.19433
-0.195965
-0.197548
-0.199072
-0.200536
-0.201936
-0.203277
-0.204561
-0.205796
-0.206987
-0.208145
-0.209277
-0.210392
-0.211496
-0.212595
-0.213694
-0.214793
-0.215882
-0.216922
-0.217839
-0.160234
-0.161154
-0.163033
-0.164715
-0.166242
-0.167908
-0.169658
-0.171405
-0.173155
-0.174923
-0.176702
-0.178487
-0.180281
-0.182079
-0.183875
-0.185661
-0.187434
-0.189188
-0.190919
-0.192625
-0.194299
-0.19593
-0.19751
-0.199032
-0.200494
-0.201895
-0.203236
-0.204522
-0.205758
-0.206951
-0.208109
-0.20924
-0.210352
-0.21145
-0.212541
-0.213626
-0.214704
-0.215763
-0.216766
-0.217647
-0.160656
-0.161423
-0.163131
-0.164778
-0.166299
-0.167941
-0.169675
-0.171416
-0.173163
-0.174927
-0.176703
-0.178487
-0.180279
-0.182074
-0.183866
-0.18565
-0.18742
-0.189171
-0.190899
-0.192602
-0.194272
-0.195899
-0.197475
-0.198996
-0.200457
-0.201857
-0.203199
-0.204486
-0.205723
-0.206916
-0.208075
-0.209204
-0.210313
-0.211405
-0.212486
-0.213558
-0.214616
-0.215648
-0.216618
-0.217468
-0.161011
-0.161665
-0.163228
-0.164835
-0.16635
-0.167973
-0.169691
-0.171426
-0.173169
-0.174931
-0.176705
-0.178487
-0.180276
-0.182069
-0.183859
-0.18564
-0.187407
-0.189156
-0.190882
-0.192581
-0.194247
-0.195871
-0.197445
-0.198963
-0.200423
-0.201823
-0.203165
-0.204452
-0.20569
-0.206884
-0.208042
-0.20917
-0.210274
-0.211361
-0.212433
-0.213491
-0.21453
-0.215537
-0.216479
-0.217303
-0.161307
-0.161877
-0.163321
-0.164888
-0.166395
-0.168002
-0.169706
-0.171435
-0.173176
-0.174934
-0.176706
-0.178487
-0.180274
-0.182065
-0.183852
-0.185631
-0.187396
-0.189143
-0.190866
-0.192563
-0.194225
-0.195846
-0.197417
-0.198934
-0.200393
-0.201792
-0.203135
-0.204422
-0.20566
-0.206854
-0.20801
-0.209136
-0.210237
-0.211317
-0.21238
-0.213425
-0.214446
-0.21543
-0.216347
-0.217149
-0.161552
-0.16206
-0.163405
-0.164935
-0.166435
-0.168027
-0.169719
-0.171443
-0.173181
-0.174937
-0.176707
-0.178487
-0.180273
-0.182061
-0.183846
-0.185623
-0.187387
-0.189131
-0.190853
-0.192547
-0.194207
-0.195825
-0.197394
-0.198909
-0.200366
-0.201766
-0.203108
-0.204395
-0.205633
-0.206826
-0.207981
-0.209105
-0.210201
-0.211275
-0.212328
-0.21336
-0.214365
-0.215328
-0.216222
-0.217005
-0.161749
-0.162211
-0.163479
-0.164975
-0.166468
-0.168049
-0.169731
-0.17145
-0.173186
-0.174939
-0.176708
-0.178487
-0.180271
-0.182058
-0.183842
-0.185617
-0.187379
-0.189122
-0.190841
-0.192533
-0.194191
-0.195807
-0.197374
-0.198887
-0.200344
-0.201743
-0.203084
-0.204371
-0.205609
-0.206801
-0.207955
-0.209075
-0.210167
-0.211234
-0.212278
-0.213298
-0.214287
-0.215231
-0.216105
-0.216872
-0.161902
-0.162332
-0.16354
-0.165008
-0.166495
-0.168067
-0.16974
-0.171456
-0.173189
-0.174941
-0.176709
-0.178487
-0.18027
-0.182055
-0.183838
-0.185612
-0.187372
-0.189114
-0.190832
-0.192522
-0.194178
-0.195792
-0.197358
-0.19887
-0.200326
-0.201724
-0.203065
-0.204351
-0.205587
-0.206779
-0.20793
-0.209047
-0.210134
-0.211194
-0.21223
-0.213238
-0.214212
-0.215138
-0.215994
-0.216748
-0.162015
-0.162422
-0.163587
-0.165034
-0.166515
-0.168081
-0.169747
-0.171461
-0.173192
-0.174943
-0.17671
-0.178487
-0.180269
-0.182053
-0.183835
-0.185608
-0.187367
-0.189108
-0.190825
-0.192514
-0.194168
-0.195781
-0.197345
-0.198856
-0.200311
-0.201708
-0.203048
-0.204334
-0.205569
-0.206759
-0.207908
-0.209021
-0.210103
-0.211157
-0.212183
-0.21318
-0.21414
-0.21505
-0.21589
-0.216632
-0.16209
-0.162482
-0.163619
-0.165051
-0.166528
-0.16809
-0.169752
-0.171463
-0.173194
-0.174944
-0.17671
-0.178487
-0.180268
-0.182052
-0.183833
-0.185605
-0.187364
-0.189104
-0.19082
-0.192508
-0.194161
-0.195773
-0.197336
-0.198846
-0.2003
-0.201696
-0.203036
-0.20432
-0.205554
-0.206742
-0.207888
-0.208997
-0.210074
-0.211121
-0.212139
-0.213124
-0.214071
-0.214967
-0.215792
-0.216523
-0.162126
-0.162512
-0.163635
-0.16506
-0.166535
-0.168095
-0.169755
-0.171465
-0.173195
-0.174945
-0.176711
-0.178487
-0.180268
-0.182051
-0.183832
-0.185604
-0.187362
-0.189101
-0.190817
-0.192505
-0.194157
-0.195768
-0.197331
-0.19884
-0.200293
-0.201689
-0.203027
-0.20431
-0.205542
-0.206727
-0.20787
-0.208976
-0.210047
-0.211087
-0.212096
-0.213071
-0.214006
-0.214888
-0.215701
-0.216422
-0.162126
-0.162512
-0.163635
-0.16506
-0.166535
-0.168095
-0.169755
-0.171465
-0.173195
-0.174945
-0.176711
-0.178486
-0.180268
-0.182051
-0.183832
-0.185603
-0.187361
-0.189101
-0.190817
-0.192504
-0.194156
-0.195767
-0.197329
-0.198838
-0.20029
-0.201684
-0.203021
-0.204303
-0.205533
-0.206715
-0.207855
-0.208956
-0.210022
-0.211056
-0.212056
-0.213021
-0.213944
-0.214814
-0.215615
-0.216328
-0.16209
-0.162482
-0.163619
-0.165051
-0.166528
-0.16809
-0.169752
-0.171463
-0.173194
-0.174944
-0.17671
-0.178486
-0.180268
-0.182052
-0.183832
-0.185604
-0.187363
-0.189102
-0.190818
-0.192505
-0.194158
-0.195768
-0.19733
-0.198839
-0.20029
-0.201684
-0.203019
-0.204299
-0.205527
-0.206706
-0.207842
-0.208939
-0.21
-0.211026
-0.212019
-0.212974
-0.213886
-0.214744
-0.215534
-0.216241
-0.162015
-0.162422
-0.163587
-0.165034
-0.166515
-0.168081
-0.169747
-0.17146
-0.173192
-0.174943
-0.17671
-0.178486
-0.180268
-0.182053
-0.183834
-0.185606
-0.187365
-0.189105
-0.190822
-0.192509
-0.194162
-0.195773
-0.197336
-0.198844
-0.200295
-0.201687
-0.203021
-0.204299
-0.205524
-0.2067
-0.207833
-0.208925
-0.20998
-0.210999
-0.211984
-0.21293
-0.213831
-0.214679
-0.215459
-0.216159
-0.161902
-0.162332
-0.16354
-0.165008
-0.166494
-0.168067
-0.16974
-0.171456
-0.173189
-0.174941
-0.176709
-0.178486
-0.180269
-0.182054
-0.183836
-0.18561
-0.187369
-0.18911
-0.190827
-0.192516
-0.19417
-0.195782
-0.197344
-0.198853
-0.200303
-0.201694
-0.203027
-0.204302
-0.205524
-0.206697
-0.207825
-0.208912
-0.209962
-0.210975
-0.211951
-0.212888
-0.21378
-0.214617
-0.215389
-0.216083
-0.161749
-0.162211
-0.163479
-0.164975
-0.166468
-0.168049
-0.16973
-0.17145
-0.173185
-0.174939
-0.176708
-0.178486
-0.18027
-0.182056
-0.183839
-0.185614
-0.187375
-0.189117
-0.190835
-0.192525
-0.194181
-0.195793
-0.197357
-0.198865
-0.200315
-0.201705
-0.203036
-0.204309
-0.205528
-0.206697
-0.207821
-0.208903
-0.209946
-0.210952
-0.211921
-0.21285
-0.213732
-0.21456
-0.215324
-0.216013
-0.161552
-0.16206
-0.163405
-0.164935
-0.166434
-0.168027
-0.169719
-0.171443
-0.173181
-0.174936
-0.176707
-0.178486
-0.180271
-0.182059
-0.183844
-0.18562
-0.187382
-0.189126
-0.190845
-0.192537
-0.194194
-0.195809
-0.197373
-0.198882
-0.200331
-0.20172
-0.203049
-0.204319
-0.205535
-0.2067
-0.207819
-0.208896
-0.209933
-0.210932
-0.211894
-0.212814
-0.213688
-0.214508
-0.215264
-0.215947
-0.161307
-0.161877
-0.16332
-0.164888
-0.166395
-0.168001
-0.169705
-0.171435
-0.173175
-0.174933
-0.176705
-0.178486
-0.180273
-0.182062
-0.183849
-0.185627
-0.187391
-0.189136
-0.190857
-0.192551
-0.194211
-0.195827
-0.197393
-0.198902
-0.200351
-0.201739
-0.203066
-0.204333
-0.205545
-0.206706
-0.20782
-0.208891
-0.209922
-0.210915
-0.211869
-0.212781
-0.213647
-0.214459
-0.215208
-0.215887
-0.161011
-0.161665
-0.163228
-0.164835
-0.166349
-0.167973
-0.169691
-0.171426
-0.173169
-0.17493
-0.176704
-0.178485
-0.180274
-0.182066
-0.183855
-0.185635
-0.187402
-0.189148
-0.190872
-0.192568
-0.19423
-0.195849
-0.197416
-0.198927
-0.200376
-0.201762
-0.203086
-0.204351
-0.205559
-0.206715
-0.207824
-0.208889
-0.209914
-0.2109
-0.211847
-0.212752
-0.213609
-0.214414
-0.215157
-0.215831
-0.160656
-0.161423
-0.163131
-0.164777
-0.166298
-0.167941
-0.169674
-0.171415
-0.173162
-0.174926
-0.176702
-0.178485
-0.180276
-0.182071
-0.183862
-0.185645
-0.187414
-0.189162
-0.190888
-0.192587
-0.194253
-0.195875
-0.197444
-0.198955
-0.200404
-0.201789
-0.203111
-0.204372
-0.205576
-0.206727
-0.20783
-0.20889
-0.209908
-0.210888
-0.211828
-0.212725
-0.213575
-0.214372
-0.21511
-0.21578
-0.160234
-0.161154
-0.163032
-0.164715
-0.166242
-0.167908
-0.169657
-0.171404
-0.173155
-0.174922
-0.1767
-0.178485
-0.180279
-0.182076
-0.18387
-0.185656
-0.187427
-0.189178
-0.190906
-0.192609
-0.194279
-0.195903
-0.197475
-0.198987
-0.200436
-0.20182
-0.203139
-0.204396
-0.205596
-0.206742
-0.207839
-0.208893
-0.209905
-0.210878
-0.211811
-0.212701
-0.213544
-0.214335
-0.215067
-0.215733
-0.159733
-0.160861
-0.162939
-0.164649
-0.166181
-0.167873
-0.16964
-0.171392
-0.173147
-0.174919
-0.176698
-0.178485
-0.180281
-0.182082
-0.183879
-0.185668
-0.187442
-0.189196
-0.190926
-0.192633
-0.194307
-0.195935
-0.19751
-0.199023
-0.200472
-0.201855
-0.203171
-0.204424
-0.205619
-0.206759
-0.207851
-0.208898
-0.209903
-0.21087
-0.211796
-0.212679
-0.213516
-0.2143
-0.215027
-0.215691
-0.159138
-0.16055
-0.162855
-0.164579
-0.166115
-0.167837
-0.169621
-0.17138
-0.173139
-0.174915
-0.176696
-0.178484
-0.180284
-0.182088
-0.183889
-0.185681
-0.187458
-0.189214
-0.190948
-0.192659
-0.194338
-0.19597
-0.197548
-0.199063
-0.200512
-0.201893
-0.203206
-0.204455
-0.205644
-0.206779
-0.207864
-0.208905
-0.209904
-0.210864
-0.211784
-0.21266
-0.21349
-0.214269
-0.214991
-0.215651
-0.15843
-0.160232
-0.162785
-0.164508
-0.166047
-0.167801
-0.169603
-0.171367
-0.173131
-0.17491
-0.176693
-0.178483
-0.180286
-0.182094
-0.183898
-0.185694
-0.187475
-0.189233
-0.19097
-0.192686
-0.19437
-0.196007
-0.197588
-0.199105
-0.200554
-0.201934
-0.203244
-0.204489
-0.205672
-0.206801
-0.20788
-0.208914
-0.209906
-0.210859
-0.211773
-0.212643
-0.213467
-0.21424
-0.214958
-0.215615
-0.157581
-0.159941
-0.162727
-0.164428
-0.165977
-0.167765
-0.169584
-0.171354
-0.173122
-0.174906
-0.176689
-0.17848
-0.180287
-0.182099
-0.183907
-0.185706
-0.187491
-0.189252
-0.190991
-0.192713
-0.194403
-0.196046
-0.197631
-0.19915
-0.200599
-0.201977
-0.203284
-0.204524
-0.205702
-0.206824
-0.207897
-0.208924
-0.209909
-0.210856
-0.211764
-0.212628
-0.213446
-0.214215
-0.214928
-0.215583
-0.156553
-0.15969
-0.162698
-0.164348
-0.165905
-0.16773
-0.169564
-0.171339
-0.173112
-0.174899
-0.176682
-0.178473
-0.180285
-0.182101
-0.183912
-0.185716
-0.187506
-0.189267
-0.191009
-0.192739
-0.194436
-0.196085
-0.197675
-0.199196
-0.200646
-0.202023
-0.203327
-0.204562
-0.205734
-0.206849
-0.207915
-0.208935
-0.209914
-0.210855
-0.211758
-0.212616
-0.213429
-0.214192
-0.214902
-0.215555
-0.155298
-0.159504
-0.162706
-0.164271
-0.165835
-0.167693
-0.169539
-0.171317
-0.173095
-0.174886
-0.176666
-0.178459
-0.180276
-0.182096
-0.183913
-0.185722
-0.187516
-0.189279
-0.191026
-0.192764
-0.194469
-0.196126
-0.197721
-0.199246
-0.200697
-0.202073
-0.203374
-0.204604
-0.20577
-0.206878
-0.207937
-0.20895
-0.209922
-0.210857
-0.211753
-0.212607
-0.213415
-0.214174
-0.21488
-0.21553
-0.153875
-0.159354
-0.162712
-0.164179
-0.165757
-0.167652
-0.16951
-0.17129
-0.173069
-0.174859
-0.176638
-0.178433
-0.180258
-0.182083
-0.183906
-0.185721
-0.187519
-0.189291
-0.191048
-0.192793
-0.194506
-0.196172
-0.197774
-0.199303
-0.200755
-0.202128
-0.203423
-0.204649
-0.20581
-0.206913
-0.207965
-0.208972
-0.209938
-0.210867
-0.211757
-0.212606
-0.213409
-0.214163
-0.214865
-0.215514
-0.152142
-0.159306
-0.162755
-0.164079
-0.165669
-0.167609
-0.169495
-0.171287
-0.17307
-0.174862
-0.176651
-0.178458
-0.180285
-0.182112
-0.183937
-0.185751
-0.187547
-0.189321
-0.191082
-0.192833
-0.194554
-0.196227
-0.197836
-0.199368
-0.200822
-0.202196
-0.203486
-0.204701
-0.205853
-0.206948
-0.207993
-0.208994
-0.209957
-0.210881
-0.211768
-0.212615
-0.213415
-0.214168
-0.214869
-0.215518
-0.150082
-0.159341
-0.16284
-0.163978
-0.165547
-0.167498
-0.169388
-0.17118
-0.172965
-0.174766
-0.176568
-0.178384
-0.180225
-0.182077
-0.183928
-0.185764
-0.187571
-0.189349
-0.191117
-0.192883
-0.194621
-0.196308
-0.197925
-0.199463
-0.200923
-0.202302
-0.203593
-0.2048
-0.205942
-0.207027
-0.208064
-0.209058
-0.210013
-0.210932
-0.211814
-0.212656
-0.213454
-0.214202
-0.214901
-0.215548
-0.147192
-0.159149
-0.163012
-0.164128
-0.165727
-0.167698
-0.169589
-0.171374
-0.173149
-0.17494
-0.176732
-0.178519
-0.180323
-0.182157
-0.184005
-0.185845
-0.187649
-0.189416
-0.19118
-0.192952
-0.194701
-0.196395
-0.198014
-0.199551
-0.201006
-0.20238
-0.203667
-0.204869
-0.206005
-0.207087
-0.20812
-0.20911
-0.210061
-0.210976
-0.211853
-0.212691
-0.213484
-0.21423
-0.214926
-0.215571
-0.221395
-0.220452
-0.221206
-0.221339
-0.221071
-0.220791
-0.220569
-0.220428
-0.220422
-0.220583
-0.220923
-0.221435
-0.222091
-0.222846
-0.223652
-0.224464
-0.225237
-0.225931
-0.226523
-0.226999
-0.22733
-0.227478
-0.227417
-0.227138
-0.226628
-0.225887
-0.224914
-0.223697
-0.222251
-0.220575
-0.218666
-0.216545
-0.214216
-0.211677
-0.208945
-0.206039
-0.202963
-0.199722
-0.196336
-0.192824
-0.189196
-0.185459
-0.181627
-0.177717
-0.173743
-0.169724
-0.165669
-0.161581
-0.157476
-0.153367
-0.149265
-0.145179
-0.141122
-0.137095
-0.133116
-0.129178
-0.125285
-0.121447
-0.117678
-0.113982
-0.11036
-0.106813
-0.103345
-0.0999582
-0.096652
-0.0934279
-0.0902866
-0.0872282
-0.084252
-0.0813577
-0.0785443
-0.0758113
-0.0731578
-0.0705822
-0.0680829
-0.0656587
-0.0633076
-0.0610277
-0.0588177
-0.0566762
-0.0546011
-0.0525904
-0.050642
-0.0487546
-0.0469266
-0.045156
-0.0434411
-0.0417808
-0.040173
-0.0386157
-0.0371078
-0.0356483
-0.034235
-0.032867
-0.0315431
-0.0302614
-0.0290211
-0.0278211
-0.0266595
-0.0255362
-0.0244497
-0.0233988
-0.0223828
-0.0214009
-0.0204522
-0.0195364
-0.0186529
-0.0178013
-0.016982
-0.016192
-0.0154272
-0.0146845
-0.0139637
-0.0132649
-0.0125882
-0.0119364
-0.0113073
-0.0107012
-0.0101181
-0.00955624
-0.00901605
-0.00849603
-0.00799544
-0.00751402
-0.00705002
-0.00660276
-0.0061741
-0.00576582
-0.00537685
-0.00500628
-0.00465318
-0.00431712
-0.00399735
-0.00369361
-0.00340525
-0.00313209
-0.00287352
-0.00262939
-0.00239915
-0.00218261
-0.00197926
-0.00178889
-0.00161102
-0.00144545
-0.0012917
-0.00114955
-0.00101857
-0.000898515
-0.000788972
-0.000689689
-0.000600245
-0.000520384
-0.000449708
-0.000387962
-0.000334766
-0.000289868
-0.0002529
-0.000223611
-0.000201665
-0.000186823
-0.000178773
-0.000177286
-0.000182076
-0.000192924
-0.000209574
-0.000231818
-0.000259421
-0.000292185
-0.000329903
-0.000372399
-0.000419499
-0.000471046
-0.000526901
-0.000586851
-0.000650739
-0.000718326
-0.000789506
-0.000864199
-0.000942763
-0.0010254
-0.0011122
-0.00120248
-0.001295
-0.00138861
-0.00148316
-0.00157822
-0.00167386
-0.00176987
-0.00186605
-0.00196213
-0.00205892
-0.00215729
-0.00225887
-0.00236534
-0.00247945
-0.00260309
-0.00273789
-0.00288418
-0.00304252
-0.00321178
-0.00339096
-0.00357901
-0.00377568
-0.00397851
-0.00418561
-0.00439453
-0.00460372
-0.00481081
-0.00501528
-0.00521638
-0.00541517
-0.00561248
-0.00581113
-0.00601347
-0.00622318
-0.00644258
-0.0066751
-0.0069228
-0.00718901
-0.00747536
-0.00778436
-0.00811634
-0.0084725
-0.00885109
-0.00925122
-0.00966896
-0.0101015
-0.0105417
-0.0109824
-0.0114093
-0.0118034
-0.0121343
-0.0123637
-0.0124484
-0.012361
-0.0121025
-0.0117017
-0.011179
-0.0105241
-0.0097281
-0.00880938
-0.00780678
-0.00676263
-0.0057138
-0.00469374
-0.00372515
-0.00282003
-0.00198702
-0.00123078
-0.000552622
4.89021e-05
0.000576811
0.00103548
0.00142982
0.0017653
0.00204732
0.0022813
0.00247234
0.00262538
0.0027448
0.00283472
0.00289876
0.00294026
0.00296207
0.00296682
0.00295665
0.00293363
0.00289937
0.00285545
0.00280304
0.00274338
0.00267732
0.00260583
0.0025295
0.00244912
0.0023651
0.00227809
0.00218836
0.00209648
0.00200261
0.00190723
0.00181045
0.00171265
0.00161389
0.0015145
0.0014145
0.00131419
0.00121355
0.0011129
0.00101209
0.000911562
0.00081102
0.000710945
0.000611281
0.000511682
0.00041496
0.000313095
0.000231613
0.000100687
0.000121636
-0.220985
-0.220135
-0.220383
-0.22025
-0.21994
-0.21979
-0.219714
-0.219709
-0.219816
-0.220057
-0.220452
-0.220996
-0.221667
-0.222429
-0.223237
-0.224046
-0.224814
-0.2255
-0.226085
-0.226549
-0.226866
-0.227002
-0.226932
-0.226644
-0.22613
-0.225386
-0.224412
-0.223199
-0.221758
-0.22009
-0.218192
-0.216083
-0.213767
-0.211244
-0.208529
-0.205639
-0.202581
-0.19936
-0.195994
-0.192502
-0.188894
-0.185177
-0.181365
-0.177476
-0.173523
-0.169523
-0.165485
-0.161416
-0.15733
-0.15324
-0.149155
-0.145086
-0.141045
-0.137032
-0.133068
-0.129143
-0.125266
-0.121444
-0.117689
-0.114009
-0.110399
-0.106862
-0.103403
-0.100023
-0.096723
-0.0935043
-0.0903677
-0.0873134
-0.0843406
-0.0814491
-0.0786379
-0.0759067
-0.0732546
-0.07068
-0.0681812
-0.0657571
-0.0634057
-0.0611252
-0.0589145
-0.0567719
-0.0546956
-0.0526833
-0.0507332
-0.0488438
-0.0470136
-0.0452409
-0.0435237
-0.0418608
-0.0402505
-0.0386906
-0.03718
-0.0357176
-0.0343015
-0.0329308
-0.0316041
-0.0303197
-0.0290767
-0.027874
-0.0267098
-0.0255838
-0.0244947
-0.0234413
-0.0224226
-0.0214379
-0.0204861
-0.0195667
-0.0186789
-0.017822
-0.0169966
-0.0162017
-0.0154351
-0.0146957
-0.0139804
-0.0132862
-0.0126139
-0.0119638
-0.011334
-0.0107273
-0.0101432
-0.00958028
-0.00903939
-0.00851855
-0.00801715
-0.00753492
-0.00706975
-0.00662083
-0.00619064
-0.00578154
-0.00539211
-0.00502121
-0.00466782
-0.00433148
-0.00401146
-0.00370747
-0.00341886
-0.00314546
-0.00288667
-0.00264232
-0.00241187
-0.00219514
-0.0019916
-0.00180106
-0.00162303
-0.0014573
-0.00130341
-0.00116111
-0.00103
-0.000909813
-0.000800148
-0.000700744
-0.000611184
-0.000531207
-0.000460415
-0.000398554
-0.000345246
-0.000300234
-0.000263152
-0.000233747
-0.000211681
-0.000196718
-0.000188546
-0.000186934
-0.000191596
-0.000202315
-0.000218833
-0.000240943
-0.000268408
-0.000301034
-0.000338607
-0.000380955
-0.000427906
-0.000479306
-0.000535013
-0.000594823
-0.000658566
-0.000725996
-0.00079699
-0.000871456
-0.000949695
-0.00103187
-0.00111806
-0.00120763
-0.00129958
-0.00139288
-0.00148734
-0.00158254
-0.0016786
-0.00177534
-0.00187259
-0.00197022
-0.00206905
-0.00216979
-0.0022737
-0.00238227
-0.00249802
-0.00262243
-0.002757
-0.0029022
-0.00305859
-0.00322509
-0.00340093
-0.00358534
-0.00377824
-0.00397765
-0.00418228
-0.00439003
-0.00459934
-0.00480788
-0.00501507
-0.00521989
-0.00542292
-0.0056246
-0.00582751
-0.00603391
-0.00624734
-0.00647003
-0.00670527
-0.00695508
-0.00722271
-0.00750983
-0.0078188
-0.00814995
-0.00850434
-0.00888017
-0.0092764
-0.0096891
-0.0101153
-0.0105476
-0.0109772
-0.0113879
-0.0117593
-0.0120612
-0.0122609
-0.0123268
-0.0122447
-0.012019
-0.0116614
-0.0111661
-0.0105155
-0.00971258
-0.00878509
-0.00777488
-0.00672517
-0.00567315
-0.00465119
-0.00368139
-0.00277633
-0.00194441
-0.00119001
-0.000514181
8.46829e-05
0.000609767
0.00106557
0.0014571
0.00178988
0.00206938
0.00230103
0.00248995
0.00264108
0.00275878
0.00284718
0.00290987
0.00295018
0.00297093
0.00297474
0.00296376
0.00294002
0.00290511
0.00286062
0.00280771
0.00274761
0.00268115
0.00260931
0.00253268
0.00245203
0.00236778
0.00228056
0.00219067
0.00209864
0.00200466
0.00190918
0.00181232
0.00171446
0.00161566
0.00151626
0.00141626
0.00131596
0.00121536
0.00111474
0.001014
0.000913521
0.00081305
0.000713022
0.000613419
0.000513787
0.000417099
0.000314786
0.000233677
0.000100704
0.000124908
-0.220515
-0.219972
-0.22006
-0.219997
-0.219706
-0.219479
-0.219293
-0.219213
-0.219291
-0.219543
-0.219971
-0.22055
-0.221247
-0.222023
-0.222837
-0.223641
-0.224398
-0.225077
-0.225652
-0.226103
-0.226406
-0.226529
-0.226449
-0.226154
-0.225634
-0.224887
-0.223912
-0.222702
-0.221265
-0.219604
-0.217717
-0.215619
-0.213315
-0.210808
-0.20811
-0.205237
-0.202197
-0.198996
-0.195651
-0.192178
-0.18859
-0.184894
-0.181104
-0.177236
-0.173304
-0.169324
-0.165306
-0.161257
-0.15719
-0.153118
-0.149051
-0.144999
-0.140972
-0.136975
-0.133026
-0.129117
-0.125261
-0.12146
-0.11772
-0.114052
-0.110451
-0.106921
-0.103469
-0.100096
-0.0968029
-0.0935892
-0.0904568
-0.0874063
-0.0844367
-0.081548
-0.0787391
-0.0760095
-0.0733588
-0.070785
-0.0682866
-0.0658624
-0.0635106
-0.0612295
-0.059018
-0.0568744
-0.0547967
-0.0527828
-0.0508308
-0.0489393
-0.0471069
-0.0453319
-0.0436124
-0.041947
-0.0403339
-0.0387713
-0.0372578
-0.0357924
-0.0343735
-0.0329998
-0.0316701
-0.0303829
-0.029137
-0.0279314
-0.0267644
-0.0256357
-0.0245439
-0.0234879
-0.0224667
-0.0214794
-0.020525
-0.0196028
-0.0187119
-0.0178513
-0.017021
-0.0162202
-0.015448
-0.0147048
-0.0139883
-0.0132967
-0.0126294
-0.0119834
-0.0113577
-0.0107538
-0.0101692
-0.00960535
-0.00906372
-0.00854187
-0.00803964
-0.00755657
-0.00709016
-0.00663937
-0.00620748
-0.0057976
-0.00540781
-0.00503664
-0.00468302
-0.00434645
-0.0040262
-0.00372197
-0.00343315
-0.00315952
-0.00290052
-0.00265597
-0.00242533
-0.00220842
-0.00200471
-0.00181401
-0.00163583
-0.00146995
-0.00131592
-0.00117349
-0.00104224
-0.000921923
-0.000812136
-0.000712609
-0.000622931
-0.00054283
-0.000471918
-0.000409932
-0.000356502
-0.000311364
-0.000274156
-0.000244619
-0.000222421
-0.00020732
-0.00019901
-0.000197255
-0.000201772
-0.000212342
-0.000228712
-0.000250669
-0.000277981
-0.00031045
-0.000347863
-0.000390047
-0.000436835
-0.000488072
-0.000543623
-0.000603289
-0.000666898
-0.000734206
-0.000805083
-0.000879416
-0.000957443
-0.00103927
-0.00112492
-0.00121381
-0.00130513
-0.00139797
-0.0014921
-0.00158716
-0.00168325
-0.0017802
-0.00187794
-0.00197644
-0.00207659
-0.00217904
-0.00228501
-0.00239591
-0.00251381
-0.0026398
-0.00277526
-0.00292061
-0.00307608
-0.00324066
-0.00341389
-0.00359518
-0.0037845
-0.00398035
-0.00418208
-0.00438799
-0.00459662
-0.00480579
-0.00501497
-0.00522296
-0.00542984
-0.00563572
-0.00584288
-0.00605348
-0.00627082
-0.006497
-0.00673512
-0.00698714
-0.00725627
-0.00754418
-0.00785313
-0.00818337
-0.0085358
-0.00890851
-0.0093002
-0.00970683
-0.0101251
-0.0105468
-0.0109617
-0.011353
-0.0117004
-0.0119773
-0.0121585
-0.0122224
-0.01216
-0.0119674
-0.0116367
-0.0111501
-0.0104959
-0.00968611
-0.00875242
-0.00773756
-0.00668483
-0.0056314
-0.00460883
-0.00363884
-0.00273442
-0.00190387
-0.00115138
-0.000477838
0.000118498
0.000640937
0.00109407
0.00148299
0.00181328
0.00209043
0.00231993
0.00250687
0.00265621
0.00277231
0.00285927
0.00292069
0.00295986
0.00297962
0.00298254
0.00297077
0.00294633
0.00291081
0.00286576
0.00281237
0.00275183
0.00268499
0.0026128
0.00253587
0.00245495
0.00237047
0.00228305
0.00219299
0.00210081
0.0020067
0.00191112
0.00181418
0.00171627
0.00161743
0.00151799
0.00141799
0.00131771
0.00121712
0.00111655
0.00101585
0.000915419
0.000814999
0.000714999
0.000615423
0.000515725
0.000419029
0.000316334
0.000235497
0.000100913
0.000127261
-0.220154
-0.219854
-0.219886
-0.219874
-0.219631
-0.219402
-0.219218
-0.219124
-0.219155
-0.219341
-0.219699
-0.220218
-0.220875
-0.221632
-0.222436
-0.223234
-0.223986
-0.224661
-0.225228
-0.225666
-0.225955
-0.226066
-0.225975
-0.225671
-0.225145
-0.224394
-0.223418
-0.222211
-0.220778
-0.219122
-0.217245
-0.215158
-0.212867
-0.210374
-0.207692
-0.204837
-0.201815
-0.198634
-0.195309
-0.191857
-0.188289
-0.184615
-0.180847
-0.177
-0.17309
-0.16913
-0.165132
-0.161102
-0.157055
-0.153002
-0.148953
-0.144918
-0.140908
-0.136927
-0.132991
-0.129098
-0.125261
-0.121482
-0.11776
-0.114103
-0.11051
-0.106987
-0.103543
-0.100177
-0.0968899
-0.0936802
-0.0905512
-0.0875044
-0.0845385
-0.0816529
-0.0788462
-0.0761179
-0.0734681
-0.0708949
-0.0683969
-0.0659728
-0.0636207
-0.0613389
-0.0591267
-0.0569819
-0.0549026
-0.052887
-0.0509332
-0.0490396
-0.047205
-0.0454278
-0.0437059
-0.0420378
-0.040422
-0.0388565
-0.0373401
-0.0358717
-0.0344499
-0.0330733
-0.0317406
-0.0304503
-0.0292014
-0.0279928
-0.0268228
-0.0256912
-0.0245966
-0.0235379
-0.0225141
-0.0215242
-0.0205673
-0.0196426
-0.0187491
-0.0178858
-0.0170521
-0.0162471
-0.0154701
-0.0147215
-0.0140002
-0.0133055
-0.012637
-0.0119922
-0.0113711
-0.0107715
-0.0101903
-0.00962967
-0.00908833
-0.00856565
-0.00806276
-0.00757878
-0.00711102
-0.00665804
-0.00622422
-0.00581363
-0.00542358
-0.00505221
-0.0046984
-0.00436161
-0.00404115
-0.00373671
-0.00344768
-0.00317385
-0.00291465
-0.00266991
-0.0024391
-0.00222201
-0.00201814
-0.00182729
-0.00164898
-0.00148296
-0.0013288
-0.00118623
-0.00105486
-0.000934422
-0.000824517
-0.000724872
-0.000635078
-0.000554855
-0.000483821
-0.000421709
-0.000368154
-0.000322887
-0.000285548
-0.000255873
-0.000233536
-0.000218289
-0.000209832
-0.000207924
-0.000212287
-0.000222697
-0.000238905
-0.000260698
-0.000287843
-0.000320139
-0.000357377
-0.00039938
-0.000445986
-0.00049704
-0.000552413
-0.000611911
-0.00067537
-0.000742553
-0.000813331
-0.000887575
-0.000965462
-0.00104703
-0.00113226
-0.00122061
-0.00131141
-0.00140385
-0.00149768
-0.00159258
-0.00168861
-0.0017856
-0.00188357
-0.00198258
-0.00208348
-0.00218694
-0.00229423
-0.00240666
-0.00252609
-0.00265349
-0.00279016
-0.0029363
-0.00309179
-0.00325577
-0.00342792
-0.00360729
-0.00379382
-0.0039866
-0.00418548
-0.00438914
-0.00459636
-0.00480535
-0.00501575
-0.0052262
-0.00543643
-0.00564624
-0.00585764
-0.00607261
-0.00629415
-0.00652414
-0.00676546
-0.00702
-0.00729091
-0.00757986
-0.00788891
-0.00821819
-0.00856837
-0.00893734
-0.00932346
-0.00972254
-0.0101309
-0.0105398
-0.0109383
-0.0113102
-0.0116377
-0.0118989
-0.0120748
-0.0121483
-0.0121069
-0.0119345
-0.0116124
-0.011124
-0.0104641
-0.00964882
-0.00871133
-0.00769422
-0.00664046
-0.00558702
-0.00456483
-0.0035954
-0.00269207
-0.00186312
-0.00111263
-0.000441372
0.000152486
0.000672356
0.0011229
0.0015093
0.00183716
0.00211203
0.0023394
0.0025244
0.00267196
0.00278646
0.00287197
0.0029321
0.00297013
0.00298886
0.00299086
0.00297829
0.00295311
0.00291695
0.00287133
0.00281742
0.00275642
0.00268917
0.00261662
0.00253936
0.00245815
0.00237342
0.00228578
0.00219553
0.00210318
0.00200894
0.00191325
0.00181622
0.00171822
0.00161934