/*--------------------------------*- C++ -*----------------------------------*\
| =========                 |                                                 |
| \\      /  F ield         | OpenFOAM: The Open Source CFD Toolbox           |
|  \\    /   O peration     | Version:  2306                                  |
|   \\  /    A nd           | Website:  www.openfoam.com                      |
|    \\/     M anipulation  |                                                 |
\*---------------------------------------------------------------------------*/
FoamFile
{
    version     2.0;
    format      ascii;
    arch        "LSB;label=32;scalar=64";
    class       surfaceScalarField;
    location    "1000";
    object      phi;
}
// * * * * * * * * * * * * * * * * * * * * * * * * * * * * * * * * * * * * * //

dimensions      [0 3 -1 0 0 0 0];

oriented        oriented;

internalField   nonuniform List<scalar> 
50780
(
2.42445e-07
7.55517e-09
2.35508e-07
6.93648e-09
2.28987e-07
6.52124e-09
2.22558e-07
6.42862e-09
2.16225e-07
6.33315e-09
2.10024e-07
6.20163e-09
2.03972e-07
6.05201e-09
1.98078e-07
5.89355e-09
1.92345e-07
5.73293e-09
1.86777e-07
5.56839e-09
1.81383e-07
5.3942e-09
1.76151e-07
5.23166e-09
1.71062e-07
5.08942e-09
1.66125e-07
4.93694e-09
1.61371e-07
4.75395e-09
1.56837e-07
4.53334e-09
1.52534e-07
4.30376e-09
1.48439e-07
4.09469e-09
1.44549e-07
3.88998e-09
1.4089e-07
3.65905e-09
1.37513e-07
3.37706e-09
1.34456e-07
3.05703e-09
1.31727e-07
2.72867e-09
1.29325e-07
2.40228e-09
1.27248e-07
2.07722e-09
1.25488e-07
1.75986e-09
1.24026e-07
1.46179e-09
1.22831e-07
1.19423e-09
1.21867e-07
9.64283e-10
1.21098e-07
7.69555e-10
1.20493e-07
6.04253e-10
1.20031e-07
4.62728e-10
1.19692e-07
3.38543e-10
1.1947e-07
2.22646e-10
1.19361e-07
1.09027e-10
1.19361e-07
7.18795e-14
1.19463e-07
-1.01775e-10
1.19752e-07
-2.89173e-10
1.20154e-07
-4.03076e-10
-1.6529e-09
1.21806e-07
2.51392e-07
6.16322e-09
2.51286e-07
7.04262e-09
2.50836e-07
6.97092e-09
2.50198e-07
7.06691e-09
2.49338e-07
7.19269e-09
2.48281e-07
7.25928e-09
2.47051e-07
7.28151e-09
2.4567e-07
7.27453e-09
2.44151e-07
7.2516e-09
2.42508e-07
7.2114e-09
2.40756e-07
7.14619e-09
2.38922e-07
7.06617e-09
2.37032e-07
6.97951e-09
2.35094e-07
6.87514e-09
2.33105e-07
6.74239e-09
2.31059e-07
6.57923e-09
2.28966e-07
6.39706e-09
2.26856e-07
6.20457e-09
2.24749e-07
5.99724e-09
2.22647e-07
5.76133e-09
2.20545e-07
5.47822e-09
2.18456e-07
5.14686e-09
2.16399e-07
4.78533e-09
2.14392e-07
4.4092e-09
2.12443e-07
4.0257e-09
2.10558e-07
3.64515e-09
2.08749e-07
3.27098e-09
2.07025e-07
2.91859e-09
2.05386e-07
2.60297e-09
2.03834e-07
2.32152e-09
2.02369e-07
2.06934e-09
2.00991e-07
1.84019e-09
1.99703e-07
1.62742e-09
1.98502e-07
1.42369e-09
1.97389e-07
1.22145e-09
1.96378e-07
1.01152e-09
1.95498e-07
7.78147e-10
1.94767e-07
4.41702e-10
1.94345e-07
1.88696e-11
-1.24879e-09
1.9394e-07
2.51317e-07
4.84583e-09
2.51895e-07
6.46504e-09
2.52314e-07
6.55207e-09
2.5262e-07
6.76074e-09
2.52816e-07
6.99629e-09
2.52948e-07
7.1277e-09
2.53035e-07
7.19433e-09
2.53081e-07
7.22857e-09
2.53082e-07
7.25066e-09
2.53037e-07
7.25652e-09
2.52947e-07
7.23565e-09
2.52809e-07
7.20475e-09
2.52617e-07
7.17091e-09
2.52373e-07
7.11952e-09
2.52072e-07
7.04303e-09
2.5171e-07
6.94148e-09
2.51286e-07
6.82107e-09
2.50809e-07
6.6817e-09
2.50284e-07
6.52225e-09
2.49706e-07
6.33895e-09
2.49063e-07
6.12123e-09
2.48345e-07
5.86502e-09
2.47554e-07
5.57659e-09
2.46696e-07
5.26763e-09
2.45774e-07
4.94716e-09
2.44793e-07
4.62664e-09
2.43752e-07
4.31111e-09
2.42665e-07
4.00637e-09
2.41548e-07
3.71999e-09
2.40414e-07
3.45546e-09
2.39272e-07
3.2109e-09
2.38132e-07
2.97991e-09
2.37004e-07
2.75627e-09
2.35894e-07
2.53303e-09
2.34815e-07
2.30101e-09
2.33778e-07
2.04827e-09
2.32806e-07
1.75034e-09
2.31913e-07
1.33461e-09
2.31177e-07
7.54201e-10
-4.65013e-10
2.30393e-07
2.51035e-07
3.81051e-09
2.51709e-07
5.79157e-09
2.52215e-07
6.04564e-09
2.52639e-07
6.33701e-09
2.53014e-07
6.62134e-09
2.53359e-07
6.78257e-09
2.53686e-07
6.86776e-09
2.53995e-07
6.91955e-09
2.54297e-07
6.94829e-09
2.54599e-07
6.95412e-09
2.54874e-07
6.96148e-09
2.55113e-07
6.96517e-09
2.55338e-07
6.94601e-09
2.55549e-07
6.90899e-09
2.55741e-07
6.85101e-09
2.55911e-07
6.77152e-09
2.56056e-07
6.67517e-09
2.5618e-07
6.55852e-09
2.56279e-07
6.42289e-09
2.5635e-07
6.26775e-09
2.5639e-07
6.0816e-09
2.56393e-07
5.86172e-09
2.56356e-07
5.61359e-09
2.56276e-07
5.34718e-09
2.56153e-07
5.07094e-09
2.55985e-07
4.79439e-09
2.55771e-07
4.52506e-09
2.55509e-07
4.26817e-09
2.55202e-07
4.02677e-09
2.54855e-07
3.80302e-09
2.5447e-07
3.59527e-09
2.54053e-07
3.3977e-09
2.53606e-07
3.20353e-09
2.53135e-07
3.00404e-09
2.52646e-07
2.78932e-09
2.52149e-07
2.54554e-09
2.51656e-07
2.24394e-09
2.51175e-07
1.81563e-09
2.50732e-07
1.19673e-09
7.2317e-11
2.50194e-07
2.50806e-07
3.00459e-09
2.51456e-07
5.1417e-09
2.51969e-07
5.53278e-09
2.52428e-07
5.87716e-09
2.52859e-07
6.19053e-09
2.5327e-07
6.37145e-09
2.53669e-07
6.46951e-09
2.54057e-07
6.53159e-09
2.54436e-07
6.56908e-09
2.54807e-07
6.583e-09
2.55173e-07
6.59524e-09
2.55533e-07
6.6052e-09
2.55884e-07
6.59526e-09
2.56226e-07
6.56694e-09
2.56558e-07
6.51913e-09
2.56878e-07
6.45087e-09
2.57193e-07
6.36038e-09
2.57492e-07
6.25965e-09
2.57767e-07
6.14764e-09
2.58028e-07
6.00741e-09
2.58272e-07
5.83757e-09
2.58495e-07
5.6383e-09
2.58695e-07
5.41423e-09
2.58868e-07
5.17372e-09
2.59015e-07
4.92411e-09
2.59136e-07
4.67331e-09
2.59232e-07
4.42861e-09
2.59305e-07
4.19551e-09
2.59355e-07
3.97688e-09
2.59384e-07
3.7742e-09
2.59393e-07
3.58568e-09
2.59385e-07
3.40614e-09
2.59359e-07
3.22898e-09
2.59319e-07
3.04486e-09
2.59266e-07
2.84247e-09
2.59205e-07
2.60591e-09
2.59143e-07
2.3061e-09
2.59079e-07
1.87949e-09
2.59013e-07
1.26264e-09
2.3993e-10
2.58845e-07
2.50605e-07
2.39938e-09
2.51212e-07
4.53499e-09
2.51709e-07
5.03585e-09
2.52178e-07
5.40828e-09
2.52631e-07
5.7371e-09
2.53071e-07
5.9317e-09
2.53501e-07
6.03918e-09
2.53924e-07
6.10862e-09
2.5434e-07
6.15289e-09
2.54749e-07
6.17399e-09
2.55155e-07
6.18939e-09
2.55559e-07
6.20124e-09
2.55958e-07
6.19606e-09
2.56352e-07
6.17331e-09
2.56739e-07
6.13246e-09
2.57117e-07
6.07281e-09
2.57485e-07
5.99242e-09
2.57844e-07
5.90059e-09
2.58193e-07
5.79838e-09
2.58529e-07
5.67132e-09
2.5885e-07
5.51645e-09
2.59154e-07
5.33466e-09
2.59438e-07
5.1302e-09
2.59701e-07
4.91038e-09
2.59943e-07
4.68197e-09
2.60165e-07
4.45184e-09
2.60367e-07
4.22654e-09
2.60551e-07
4.01109e-09
2.6072e-07
3.80823e-09
2.60875e-07
3.61908e-09
2.61019e-07
3.4419e-09
2.61153e-07
3.27182e-09
2.6128e-07
3.10228e-09
2.61401e-07
2.92397e-09
2.61519e-07
2.72489e-09
2.61636e-07
2.48808e-09
2.61757e-07
2.1853e-09
2.61877e-07
1.75971e-09
2.61986e-07
1.15374e-09
2.20182e-10
2.62005e-07
2.50459e-07
1.94083e-09
2.51012e-07
3.98156e-09
2.51483e-07
4.56514e-09
2.51943e-07
4.94842e-09
2.52399e-07
5.28021e-09
2.52849e-07
5.48184e-09
2.53294e-07
5.59447e-09
2.53735e-07
5.66803e-09
2.54171e-07
5.71669e-09
2.54602e-07
5.74312e-09
2.5503e-07
5.76121e-09
2.55457e-07
5.77427e-09
2.55881e-07
5.77226e-09
2.563e-07
5.75371e-09
2.56714e-07
5.71838e-09
2.57121e-07
5.66577e-09
2.57519e-07
5.59444e-09
2.57909e-07
5.51092e-09
2.58291e-07
5.41661e-09
2.58662e-07
5.30046e-09
2.59019e-07
5.15895e-09
2.59361e-07
4.99303e-09
2.59685e-07
4.80637e-09
2.5999e-07
4.60531e-09
2.60276e-07
4.39604e-09
2.60543e-07
4.1847e-09
2.60792e-07
3.97705e-09
2.61026e-07
3.77754e-09
2.61245e-07
3.58861e-09
2.61453e-07
3.41105e-09
2.61652e-07
3.24307e-09
2.61844e-07
3.08003e-09
2.62031e-07
2.91542e-09
2.62215e-07
2.74007e-09
2.62398e-07
2.54182e-09
2.62583e-07
2.3034e-09
2.6277e-07
1.99777e-09
2.62955e-07
1.57482e-09
2.63124e-07
9.84393e-10
1.2681e-10
2.63217e-07
2.50354e-07
1.58699e-09
2.50854e-07
3.48125e-09
2.51298e-07
4.12177e-09
2.51741e-07
4.50443e-09
2.52192e-07
4.82966e-09
2.52642e-07
5.03233e-09
2.5309e-07
5.14619e-09
2.53537e-07
5.22069e-09
2.53983e-07
5.27115e-09
2.54425e-07
5.30064e-09
2.54866e-07
5.32037e-09
2.55306e-07
5.33409e-09
2.55744e-07
5.33434e-09
2.56179e-07
5.3192e-09
2.56608e-07
5.28856e-09
2.57032e-07
5.24208e-09
2.57448e-07
5.17875e-09
2.57856e-07
5.10315e-09
2.58256e-07
5.01649e-09
2.58646e-07
4.91037e-09
2.59023e-07
4.7813e-09
2.59386e-07
4.63015e-09
2.59733e-07
4.46016e-09
2.60061e-07
4.27674e-09
2.60372e-07
4.08549e-09
2.60664e-07
3.89185e-09
2.60941e-07
3.70091e-09
2.61202e-07
3.51655e-09
2.61449e-07
3.34088e-09
2.61686e-07
3.17431e-09
2.61914e-07
3.01502e-09
2.62136e-07
2.85849e-09
2.62353e-07
2.6983e-09
2.62568e-07
2.52547e-09
2.62781e-07
2.32793e-09
2.62996e-07
2.08858e-09
2.63212e-07
1.7819e-09
2.63423e-07
1.36424e-09
2.63614e-07
7.92885e-10
1.19977e-12
2.63739e-07
2.50278e-07
1.30891e-09
2.50725e-07
3.03388e-09
2.51147e-07
3.70045e-09
2.51575e-07
4.07623e-09
2.52016e-07
4.3884e-09
2.52461e-07
4.58762e-09
2.52907e-07
4.69993e-09
2.53355e-07
4.77294e-09
2.53803e-07
4.82301e-09
2.5425e-07
4.85354e-09
2.54697e-07
4.87366e-09
2.55144e-07
4.88729e-09
2.55589e-07
4.88889e-09
2.56032e-07
4.87643e-09
2.56471e-07
4.84976e-09
2.56904e-07
4.80867e-09
2.5733e-07
4.75246e-09
2.57749e-07
4.68432e-09
2.58161e-07
4.6052e-09
2.58562e-07
4.50866e-09
2.58952e-07
4.39147e-09
2.59328e-07
4.25437e-09
2.59688e-07
4.1002e-09
2.60031e-07
3.93361e-09
2.60357e-07
3.75957e-09
2.60666e-07
3.5829e-09
2.60959e-07
3.40801e-09
2.61237e-07
3.23829e-09
2.61502e-07
3.07545e-09
2.61757e-07
2.91965e-09
2.62003e-07
2.76891e-09
2.62243e-07
2.61889e-09
2.62478e-07
2.46325e-09
2.6271e-07
2.2932e-09
2.62941e-07
2.09693e-09
2.63172e-07
1.85782e-09
2.63402e-07
1.55213e-09
2.63624e-07
1.1421e-09
2.63824e-07
5.91967e-10
-1.41347e-10
2.63967e-07
2.50223e-07
1.08609e-09
2.50623e-07
2.63325e-09
2.51025e-07
3.29912e-09
2.51438e-07
3.66269e-09
2.5187e-07
3.95694e-09
2.52308e-07
4.14894e-09
2.52751e-07
4.25766e-09
2.53196e-07
4.32756e-09
2.53643e-07
4.37573e-09
2.54091e-07
4.40581e-09
2.54539e-07
4.42536e-09
2.54988e-07
4.43821e-09
2.55437e-07
4.44041e-09
2.55883e-07
4.42991e-09
2.56327e-07
4.40655e-09
2.56765e-07
4.37019e-09
2.57197e-07
4.32032e-09
2.57622e-07
4.25915e-09
2.5804e-07
4.18739e-09
2.58449e-07
4.10007e-09
2.58846e-07
3.99429e-09
2.5923e-07
3.87065e-09
2.59598e-07
3.73162e-09
2.59951e-07
3.5812e-09
2.60287e-07
3.42372e-09
2.60606e-07
3.2634e-09
2.6091e-07
3.10406e-09
2.612e-07
2.94856e-09
2.61477e-07
2.79829e-09
2.61743e-07
2.6531e-09
2.62001e-07
2.51094e-09
2.62253e-07
2.36756e-09
2.62499e-07
2.21674e-09
2.62743e-07
2.04994e-09
2.62984e-07
1.8557e-09
2.63224e-07
1.61813e-09
2.63461e-07
1.31535e-09
2.63688e-07
9.14976e-10
2.63892e-07
3.87457e-10
-2.93399e-10
2.64044e-07
2.50182e-07
9.03985e-10
2.50543e-07
2.27271e-09
2.50926e-07
2.91603e-09
2.51326e-07
3.26209e-09
2.51748e-07
3.53477e-09
2.52181e-07
3.71627e-09
2.52619e-07
3.81965e-09
2.53061e-07
3.88533e-09
2.53506e-07
3.93061e-09
2.53953e-07
3.95929e-09
2.54401e-07
3.97762e-09
2.5485e-07
3.9893e-09
2.55299e-07
3.99155e-09
2.55746e-07
3.98249e-09
2.56191e-07
3.96192e-09
2.56631e-07
3.92973e-09
2.57066e-07
3.88557e-09
2.57494e-07
3.83093e-09
2.57915e-07
3.76631e-09
2.58327e-07
3.68787e-09
2.58728e-07
3.59308e-09
2.59117e-07
3.48237e-09
2.5949e-07
3.3579e-09
2.59849e-07
3.22303e-09
2.60191e-07
3.08154e-09
2.60517e-07
2.93704e-09
2.60828e-07
2.7928e-09
2.61126e-07
2.65118e-09
2.61411e-07
2.51323e-09
2.61685e-07
2.37855e-09
2.61951e-07
2.24501e-09
2.6221e-07
2.10844e-09
2.62464e-07
1.96278e-09
2.62715e-07
1.79977e-09
2.62962e-07
1.60836e-09
2.63207e-07
1.37355e-09
2.63447e-07
1.07535e-09
2.63675e-07
6.86149e-10
2.6388e-07
1.81907e-10
-4.51967e-10
2.64039e-07
2.50152e-07
7.52037e-10
2.50478e-07
1.94616e-09
2.50845e-07
2.54952e-09
2.51234e-07
2.87272e-09
2.51648e-07
3.12104e-09
2.52075e-07
3.28914e-09
2.52509e-07
3.3856e-09
2.52948e-07
3.44619e-09
2.53391e-07
3.48789e-09
2.53836e-07
3.51451e-09
2.54282e-07
3.53127e-09
2.5473e-07
3.5416e-09
2.55178e-07
3.54362e-09
2.55625e-07
3.53567e-09
2.56069e-07
3.51753e-09
2.5651e-07
3.48914e-09
2.56945e-07
3.45021e-09
2.57374e-07
3.40177e-09
2.57796e-07
3.34411e-09
2.5821e-07
3.27429e-09
2.58613e-07
3.19011e-09
2.59003e-07
3.09189e-09
2.5938e-07
2.98144e-09
2.59741e-07
2.86161e-09
2.60087e-07
2.73559e-09
2.60418e-07
2.60645e-09
2.60734e-07
2.47691e-09
2.61036e-07
2.34887e-09
2.61326e-07
2.22305e-09
2.61606e-07
2.09881e-09
2.61877e-07
1.97394e-09
2.62141e-07
1.84436e-09
2.624e-07
1.7042e-09
2.62654e-07
1.54547e-09
2.62905e-07
1.35767e-09
2.63152e-07
1.12674e-09
2.63392e-07
8.34589e-10
2.63621e-07
4.57815e-10
2.63825e-07
-2.2796e-11
-6.14042e-10
2.63987e-07
2.5013e-07
6.22497e-10
2.50428e-07
1.64806e-09
2.50779e-07
2.19787e-09
2.51159e-07
2.49307e-09
2.51565e-07
2.71478e-09
2.51987e-07
2.86696e-09
2.52418e-07
2.95502e-09
2.52854e-07
3.00978e-09
2.53295e-07
3.04735e-09
2.53738e-07
3.07148e-09
2.54183e-07
3.08645e-09
2.54629e-07
3.09538e-09
2.55076e-07
3.09705e-09
2.55521e-07
3.09006e-09
2.55965e-07
3.07416e-09
2.56404e-07
3.04932e-09
2.56839e-07
3.01534e-09
2.57268e-07
2.97286e-09
2.5769e-07
2.92207e-09
2.58104e-07
2.86067e-09
2.58507e-07
2.78682e-09
2.58898e-07
2.70072e-09
2.59276e-07
2.60388e-09
2.59639e-07
2.49865e-09
2.59987e-07
2.38766e-09
2.6032e-07
2.27349e-09
2.60638e-07
2.15831e-09
2.60943e-07
2.04359e-09
2.61237e-07
1.92973e-09
2.6152e-07
1.81587e-09
2.61794e-07
1.69974e-09
2.62061e-07
1.57734e-09
2.62322e-07
1.443e-09
2.62579e-07
1.28908e-09
2.62831e-07
1.10561e-09
2.63078e-07
8.79556e-10
2.63318e-07
5.94653e-10
2.63544e-07
2.31148e-10
2.63747e-07
-2.26025e-10
-7.78188e-10
2.63911e-07
2.50113e-07
5.09641e-10
2.50387e-07
1.37343e-09
2.50726e-07
1.85932e-09
2.51097e-07
2.12173e-09
2.51497e-07
2.31502e-09
2.51915e-07
2.44915e-09
2.52343e-07
2.52742e-09
2.52777e-07
2.57569e-09
2.53215e-07
2.60869e-09
2.53657e-07
2.62996e-09
2.541e-07
2.643e-09
2.54545e-07
2.65054e-09
2.5499e-07
2.65185e-09
2.55435e-07
2.64575e-09
2.55877e-07
2.63201e-09
2.56315e-07
2.61062e-09
2.56749e-07
2.58139e-09
2.57177e-07
2.54476e-09
2.57599e-07
2.5008e-09
2.58012e-07
2.44773e-09
2.58414e-07
2.38402e-09
2.58805e-07
2.30977e-09
2.59183e-07
2.22621e-09
2.59547e-07
2.13522e-09
2.59895e-07
2.03894e-09
2.60229e-07
1.93941e-09
2.60549e-07
1.83833e-09
2.60856e-07
1.73673e-09
2.61151e-07
1.63471e-09
2.61436e-07
1.53122e-09
2.61712e-07
1.42391e-09
2.6198e-07
1.30889e-09
2.62242e-07
1.18069e-09
2.625e-07
1.03205e-09
2.62752e-07
8.53591e-10
2.62998e-07
6.33297e-10
2.63236e-07
3.56669e-10
2.6346e-07
7.15234e-12
2.6366e-07
-4.26831e-10
-9.43002e-10
2.63825e-07
2.501e-07
4.09189e-10
2.50356e-07
1.11781e-09
2.50683e-07
1.53207e-09
2.51048e-07
1.75745e-09
2.51442e-07
1.9208e-09
2.51856e-07
2.03511e-09
2.52281e-07
2.10234e-09
2.52713e-07
2.14352e-09
2.5315e-07
2.17158e-09
2.5359e-07
2.18971e-09
2.54033e-07
2.2007e-09
2.54476e-07
2.20688e-09
2.5492e-07
2.20784e-09
2.55364e-07
2.20263e-09
2.55805e-07
2.19102e-09
2.56242e-07
2.17302e-09
2.56675e-07
2.14847e-09
2.57102e-07
2.11763e-09
2.57522e-07
2.08051e-09
2.57934e-07
2.03573e-09
2.58336e-07
1.98204e-09
2.58727e-07
1.91947e-09
2.59104e-07
1.84895e-09
2.59467e-07
1.77195e-09
2.59816e-07
1.69011e-09
2.60151e-07
1.60499e-09
2.60471e-07
1.51781e-09
2.60779e-07
1.4292e-09
2.61074e-07
1.33895e-09
2.6136e-07
1.24584e-09
2.61636e-07
1.14746e-09
2.61905e-07
1.04004e-09
2.62167e-07
9.18326e-10
2.62424e-07
7.75439e-10
2.62675e-07
6.02611e-10
2.6292e-07
3.88866e-10
2.63155e-07
1.21326e-10
2.63376e-07
-2.13799e-10
2.63574e-07
-6.25175e-10
-1.10797e-09
2.63738e-07
2.50091e-07
3.1788e-10
2.50332e-07
8.77272e-10
2.5065e-07
1.21427e-09
2.51008e-07
1.39899e-09
2.51398e-07
1.53116e-09
2.51809e-07
1.62422e-09
2.52232e-07
1.67934e-09
2.52662e-07
1.71291e-09
2.53098e-07
1.73571e-09
2.53537e-07
1.75046e-09
2.53979e-07
1.75932e-09
2.54421e-07
1.76417e-09
2.54864e-07
1.7648e-09
2.55307e-07
1.76048e-09
2.55747e-07
1.75101e-09
2.56183e-07
1.73638e-09
2.56615e-07
1.71647e-09
2.57041e-07
1.69141e-09
2.57461e-07
1.66116e-09
2.57872e-07
1.62467e-09
2.58273e-07
1.58094e-09
2.58663e-07
1.52993e-09
2.59039e-07
1.4723e-09
2.59402e-07
1.40911e-09
2.59751e-07
1.34155e-09
2.60085e-07
1.27068e-09
2.60405e-07
1.19727e-09
2.60713e-07
1.12157e-09
2.61009e-07
1.04308e-09
2.61294e-07
9.6041e-10
2.61571e-07
8.71111e-10
2.61839e-07
7.71511e-10
2.62101e-07
6.56607e-10
2.62357e-07
5.19917e-10
2.62606e-07
3.53309e-10
2.62848e-07
1.468e-10
2.6308e-07
-1.10932e-10
2.63298e-07
-4.31302e-10
2.63493e-07
-8.20549e-10
-1.27232e-09
2.63657e-07
2.50085e-07
2.33182e-10
2.50314e-07
6.48282e-10
2.50624e-07
9.04049e-10
2.50978e-07
1.04517e-09
2.51364e-07
1.14516e-09
2.51772e-07
1.21587e-09
2.52193e-07
1.25798e-09
2.52623e-07
1.28353e-09
2.53058e-07
1.30081e-09
2.53496e-07
1.31199e-09
2.53937e-07
1.31864e-09
2.54379e-07
1.32217e-09
2.54821e-07
1.3225e-09
2.55263e-07
1.31909e-09
2.55702e-07
1.31177e-09
2.56138e-07
1.30052e-09
2.56569e-07
1.28523e-09
2.56994e-07
1.26596e-09
2.57413e-07
1.24262e-09
2.57823e-07
1.21445e-09
2.58223e-07
1.18065e-09
2.58612e-07
1.14113e-09
2.58988e-07
1.09629e-09
2.59351e-07
1.0468e-09
2.59699e-07
9.93392e-10
2.60033e-07
9.36675e-10
2.60353e-07
8.76975e-10
2.6066e-07
8.14157e-10
2.60956e-07
7.47451e-10
2.61241e-07
6.75302e-10
2.61517e-07
5.95244e-10
2.61785e-07
5.03715e-10
2.62045e-07
3.9596e-10
2.62299e-07
2.65918e-10
2.62547e-07
1.06071e-10
2.62786e-07
-9.25747e-11
2.63015e-07
-3.39957e-10
2.63229e-07
-6.45433e-10
2.63422e-07
-1.01326e-09
-1.43601e-09
2.63585e-07
2.5008e-07
1.53062e-10
2.50301e-07
4.27658e-10
2.50605e-07
5.99513e-10
2.50956e-07
6.94812e-10
2.51339e-07
7.6188e-10
2.51745e-07
8.09437e-10
2.52165e-07
8.3786e-10
2.52594e-07
8.55042e-10
2.53028e-07
8.66622e-10
2.53466e-07
8.74084e-10
2.53906e-07
8.78461e-10
2.54348e-07
8.80692e-10
2.54789e-07
8.80742e-10
2.5523e-07
8.78251e-10
2.55669e-07
8.73091e-10
2.56104e-07
8.65224e-10
2.56535e-07
8.54561e-10
2.5696e-07
8.41089e-10
2.57378e-07
8.24706e-10
2.57787e-07
8.04868e-10
2.58187e-07
7.80999e-10
2.58575e-07
7.52934e-10
2.58951e-07
7.20827e-10
2.59312e-07
6.84972e-10
2.5966e-07
6.45661e-10
2.59994e-07
6.03052e-10
2.60314e-07
5.5704e-10
2.60621e-07
5.07123e-10
2.60916e-07
4.52263e-10
2.612e-07
3.90759e-10
2.61476e-07
3.20122e-10
2.61742e-07
2.36911e-10
2.62002e-07
1.36636e-10
2.62254e-07
1.36465e-11
2.62499e-07
-1.38929e-10
2.62736e-07
-3.29178e-10
2.62961e-07
-5.65709e-10
2.63172e-07
-8.56133e-10
2.63362e-07
-1.20308e-09
-1.59862e-09
2.63524e-07
2.50077e-07
7.58247e-11
2.50292e-07
2.12469e-10
2.50593e-07
2.98768e-10
2.50941e-07
3.46766e-10
2.51323e-07
3.80403e-10
2.51728e-07
4.04279e-10
2.52147e-07
4.18561e-10
2.52575e-07
4.27152e-10
2.53009e-07
4.32898e-10
2.53446e-07
4.36551e-10
2.53886e-07
4.38615e-10
2.54327e-07
4.3955e-10
2.54769e-07
4.39336e-10
2.55209e-07
4.37777e-10
2.55647e-07
4.34784e-10
2.56082e-07
4.30311e-10
2.56513e-07
4.24274e-10
2.56937e-07
4.16615e-10
2.57355e-07
4.07219e-10
2.57764e-07
3.95747e-10
2.58163e-07
3.81807e-10
2.58551e-07
3.65185e-10
2.58926e-07
3.45788e-10
2.59287e-07
3.23542e-10
2.59634e-07
2.98309e-10
2.59968e-07
2.69798e-10
2.60287e-07
2.37489e-10
2.60594e-07
2.00516e-10
2.60888e-07
1.57588e-10
2.61172e-07
1.0686e-10
2.61447e-07
4.58353e-11
2.61712e-07
-2.87975e-11
2.6197e-07
-1.21267e-10
2.62221e-07
-2.36788e-10
2.62464e-07
-3.81638e-10
2.62697e-07
-5.62992e-10
2.6292e-07
-7.88326e-10
2.63128e-07
-1.06371e-09
2.63315e-07
-1.39048e-09
-1.76039e-09
2.63476e-07
2.50076e-07
-1.72983e-14
2.50288e-07
-5.03958e-14
2.50587e-07
-8.31533e-14
2.50934e-07
-1.23569e-13
2.51315e-07
-1.74656e-13
2.51719e-07
-2.40648e-13
2.52138e-07
-3.27216e-13
2.52566e-07
-4.41806e-13
2.52999e-07
-5.94135e-13
2.53436e-07
-7.96684e-13
2.53876e-07
-1.0659e-12
2.54317e-07
-1.42255e-12
2.54758e-07
-1.89372e-12
2.55199e-07
-2.51451e-12
2.55637e-07
-3.33205e-12
2.56071e-07
-4.40516e-12
2.56502e-07
-5.81101e-12
2.56926e-07
-7.64776e-12
2.57343e-07
-1.00336e-11
2.57752e-07
-1.31221e-11
2.58151e-07
-1.7121e-11
2.58538e-07
-2.22938e-11
2.58913e-07
-2.89781e-11
2.59274e-07
-3.76079e-11
2.59621e-07
-4.87492e-11
2.59954e-07
-6.31295e-11
2.60273e-07
-8.16876e-11
2.6058e-07
-1.05636e-10
2.60874e-07
-1.36524e-10
2.61157e-07
-1.76326e-10
2.6143e-07
-2.27543e-10
2.61695e-07
-2.93352e-10
2.61951e-07
-3.77707e-10
2.622e-07
-4.85406e-10
2.6244e-07
-6.22097e-10
2.62672e-07
-7.94152e-10
2.62891e-07
-1.00794e-09
2.63096e-07
-1.26826e-09
2.6328e-07
-1.57538e-09
-1.92105e-09
2.63441e-07
2.50076e-07
-7.58591e-11
2.50288e-07
-2.12569e-10
2.50587e-07
-2.98934e-10
2.50934e-07
-3.47013e-10
2.51315e-07
-3.80751e-10
2.51719e-07
-4.04758e-10
2.52138e-07
-4.19213e-10
2.52566e-07
-4.28033e-10
2.52999e-07
-4.34083e-10
2.53436e-07
-4.3814e-10
2.53876e-07
-4.40741e-10
2.54317e-07
-4.42388e-10
2.54758e-07
-4.43113e-10
2.55199e-07
-4.42793e-10
2.55637e-07
-4.41432e-10
2.56071e-07
-4.391e-10
2.56501e-07
-4.35869e-10
2.56926e-07
-4.31874e-10
2.57343e-07
-4.27241e-10
2.57752e-07
-4.21931e-10
2.58151e-07
-4.15973e-10
2.58538e-07
-4.09675e-10
2.58913e-07
-4.03619e-10
2.59274e-07
-3.98599e-10
2.5962e-07
-3.95603e-10
2.59953e-07
-3.95798e-10
2.60272e-07
-4.00529e-10
2.60578e-07
-4.11363e-10
2.60871e-07
-4.30088e-10
2.61154e-07
-4.58811e-10
2.61426e-07
-5.00021e-10
2.6169e-07
-5.56755e-10
2.61945e-07
-6.32697e-10
2.62191e-07
-7.32209e-10
2.6243e-07
-8.60368e-10
2.62658e-07
-1.02274e-09
2.62875e-07
-1.22477e-09
2.63077e-07
-1.47012e-09
2.63259e-07
-1.75825e-09
-2.08093e-09
2.63419e-07
2.50077e-07
-1.53096e-10
2.50292e-07
-4.27758e-10
2.50593e-07
-5.99678e-10
2.50941e-07
-6.95056e-10
2.51323e-07
-7.62225e-10
2.51728e-07
-8.09913e-10
2.52147e-07
-8.38507e-10
2.52575e-07
-8.55916e-10
2.53009e-07
-8.67797e-10
2.53446e-07
-8.75661e-10
2.53886e-07
-8.80571e-10
2.54327e-07
-8.83508e-10
2.54769e-07
-8.84492e-10
2.55209e-07
-8.8323e-10
2.55647e-07
-8.79691e-10
2.56082e-07
-8.73951e-10
2.56512e-07
-8.66075e-10
2.56937e-07
-8.56247e-10
2.57354e-07
-8.44596e-10
2.57763e-07
-8.30884e-10
2.58162e-07
-8.14947e-10
2.58549e-07
-7.97142e-10
2.58924e-07
-7.78296e-10
2.59285e-07
-7.59559e-10
2.59632e-07
-7.42348e-10
2.59964e-07
-7.28264e-10
2.60283e-07
-7.19065e-10
2.60588e-07
-7.16658e-10
2.60881e-07
-7.23081e-10
2.61163e-07
-7.40555e-10
2.61434e-07
-7.71561e-10
2.61697e-07
-8.18988e-10
2.6195e-07
-8.86239e-10
2.62195e-07
-9.77259e-10
2.62431e-07
-1.09653e-09
2.62658e-07
-1.2489e-09
2.62872e-07
-1.43894e-09
2.63071e-07
-1.66937e-09
2.63252e-07
-1.93897e-09
-2.23977e-09
2.6341e-07
2.5008e-07
-2.33216e-10
2.50301e-07
-6.4838e-10
2.50605e-07
-9.04211e-10
2.50956e-07
-1.04541e-09
2.51339e-07
-1.1455e-09
2.51745e-07
-1.21634e-09
2.52165e-07
-1.25862e-09
2.52594e-07
-1.28439e-09
2.53028e-07
-1.30197e-09
2.53466e-07
-1.31354e-09
2.53906e-07
-1.32072e-09
2.54348e-07
-1.32495e-09
2.54789e-07
-1.3262e-09
2.5523e-07
-1.324e-09
2.55669e-07
-1.31829e-09
2.56104e-07
-1.30914e-09
2.56534e-07
-1.29661e-09
2.56959e-07
-1.28095e-09
2.57377e-07
-1.26229e-09
2.57786e-07
-1.24017e-09
2.58185e-07
-1.21423e-09
2.58573e-07
-1.18486e-09
2.58948e-07
-1.15315e-09
2.59309e-07
-1.1206e-09
2.59656e-07
-1.08907e-09
2.59988e-07
-1.06058e-09
2.60306e-07
-1.03732e-09
2.60611e-07
-1.02154e-09
2.60903e-07
-1.0155e-09
2.61184e-07
-1.02155e-09
2.61455e-07
-1.04215e-09
2.61716e-07
-1.08003e-09
2.61968e-07
-1.13831e-09
2.62212e-07
-1.22052e-09
2.62446e-07
-1.33059e-09
2.62669e-07
-1.47267e-09
2.62881e-07
-1.65059e-09
2.63078e-07
-1.86624e-09
2.63256e-07
-2.11791e-09
-2.39779e-09
2.63414e-07
2.50085e-07
-3.17914e-10
2.50314e-07
-8.77368e-10
2.50624e-07
-1.21443e-09
2.50978e-07
-1.39923e-09
2.51364e-07
-1.53149e-09
2.51772e-07
-1.62468e-09
2.52193e-07
-1.67996e-09
2.52623e-07
-1.71376e-09
2.53058e-07
-1.73685e-09
2.53496e-07
-1.75198e-09
2.53937e-07
-1.76136e-09
2.54379e-07
-1.7669e-09
2.54821e-07
-1.76843e-09
2.55262e-07
-1.76531e-09
2.55701e-07
-1.75742e-09
2.56137e-07
-1.74486e-09
2.56568e-07
-1.72766e-09
2.56993e-07
-1.70616e-09
2.57412e-07
-1.68052e-09
2.57821e-07
-1.65e-09
2.58221e-07
-1.61401e-09
2.58609e-07
-1.57301e-09
2.58984e-07
-1.52832e-09
2.59346e-07
-1.48182e-09
2.59692e-07
-1.43581e-09
2.60025e-07
-1.39277e-09
2.60342e-07
-1.35527e-09
2.60647e-07
-1.32592e-09
2.60939e-07
-1.30724e-09
2.61219e-07
-1.30168e-09
2.61488e-07
-1.31165e-09
2.61748e-07
-1.33975e-09
2.61999e-07
-1.38882e-09
2.6224e-07
-1.46195e-09
2.62472e-07
-1.56251e-09
2.62693e-07
-1.69406e-09
2.62902e-07
-1.85968e-09
2.63097e-07
-2.06062e-09
2.63274e-07
-2.29474e-09
-2.55458e-09
2.6343e-07
2.50091e-07
-4.09221e-10
2.50332e-07
-1.11791e-09
2.5065e-07
-1.53222e-09
2.51008e-07
-1.75768e-09
2.51398e-07
-1.92113e-09
2.51809e-07
-2.03556e-09
2.52232e-07
-2.10295e-09
2.52662e-07
-2.14435e-09
2.53098e-07
-2.17269e-09
2.53537e-07
-2.19119e-09
2.53979e-07
-2.2027e-09
2.54421e-07
-2.20955e-09
2.54864e-07
-2.21139e-09
2.55306e-07
-2.20735e-09
2.55746e-07
-2.19729e-09
2.56182e-07
-2.18131e-09
2.56614e-07
-2.15942e-09
2.5704e-07
-2.13207e-09
2.57459e-07
-2.09947e-09
2.5787e-07
-2.06055e-09
2.5827e-07
-2.01445e-09
2.58659e-07
-1.9617e-09
2.59034e-07
-1.90388e-09
2.59396e-07
-1.84326e-09
2.59743e-07
-1.78257e-09
2.60075e-07
-1.72475e-09
2.60392e-07
-1.67281e-09
2.60696e-07
-1.62969e-09
2.60987e-07
-1.59816e-09
2.61266e-07
-1.58076e-09
2.61534e-07
-1.57989e-09
2.61792e-07
-1.59796e-09
2.62041e-07
-1.63754e-09
2.6228e-07
-1.70131e-09
2.6251e-07
-1.79209e-09
2.62729e-07
-1.91285e-09
2.62935e-07
-2.0661e-09
2.63127e-07
-2.25246e-09
2.63301e-07
-2.46952e-09
-2.71008e-09
2.63457e-07
2.501e-07
-5.09673e-10
2.50356e-07
-1.37352e-09
2.50683e-07
-1.85947e-09
2.51048e-07
-2.12196e-09
2.51442e-07
-2.31534e-09
2.51856e-07
-2.44959e-09
2.52281e-07
-2.52801e-09
2.52713e-07
-2.57649e-09
2.5315e-07
-2.60977e-09
2.5359e-07
-2.6314e-09
2.54033e-07
-2.64494e-09
2.54476e-07
-2.65313e-09
2.5492e-07
-2.6553e-09
2.55363e-07
-2.65034e-09
2.55804e-07
-2.63811e-09
2.56241e-07
-2.61868e-09
2.56674e-07
-2.59205e-09
2.57101e-07
-2.55883e-09
2.5752e-07
-2.51929e-09
2.57932e-07
-2.47194e-09
2.58333e-07
-2.41564e-09
2.58722e-07
-2.35099e-09
2.59098e-07
-2.27983e-09
2.5946e-07
-2.20483e-09
2.59806e-07
-2.12921e-09
2.60138e-07
-2.05635e-09
2.60455e-07
-1.98968e-09
2.60758e-07
-1.93253e-09
2.61047e-07
-1.88788e-09
2.61325e-07
-1.8584e-09
2.61592e-07
-1.84644e-09
2.61848e-07
-1.85423e-09
2.62094e-07
-1.88407e-09
2.62331e-07
-1.93821e-09
2.62558e-07
-2.01893e-09
2.62774e-07
-2.1287e-09
2.62977e-07
-2.26943e-09
2.63166e-07
-2.44128e-09
2.63338e-07
-2.64158e-09
-2.86352e-09
2.63492e-07
2.50113e-07
-6.22527e-10
2.50387e-07
-1.64815e-09
2.50726e-07
-2.19801e-09
2.51097e-07
-2.49328e-09
2.51497e-07
-2.71508e-09
2.51915e-07
-2.86738e-09
2.52342e-07
-2.95559e-09
2.52777e-07
-3.01055e-09
2.53215e-07
-3.04839e-09
2.53657e-07
-3.07287e-09
2.541e-07
-3.08831e-09
2.54545e-07
-3.09787e-09
2.5499e-07
-3.10038e-09
2.55434e-07
-3.09449e-09
2.55876e-07
-3.08005e-09
2.56314e-07
-3.05712e-09
2.56748e-07
-3.02565e-09
2.57176e-07
-2.9865e-09
2.57596e-07
-2.94e-09
2.58009e-07
-2.88416e-09
2.5841e-07
-2.81752e-09
2.588e-07
-2.74074e-09
2.59176e-07
-2.65595e-09
2.59538e-07
-2.56627e-09
2.59884e-07
-2.47537e-09
2.60215e-07
-2.38712e-09
2.6053e-07
-2.30539e-09
2.60832e-07
-2.23389e-09
2.6112e-07
-2.17584e-09
2.61395e-07
-2.134e-09
2.61659e-07
-2.11067e-09
2.61913e-07
-2.10792e-09
2.62157e-07
-2.12775e-09
2.62391e-07
-2.17199e-09
2.62614e-07
-2.24239e-09
2.62826e-07
-2.34092e-09
2.63026e-07
-2.46907e-09
2.63211e-07
-2.6265e-09
2.6338e-07
-2.81044e-09
-3.01433e-09
2.6353e-07
2.5013e-07
-7.52066e-10
2.50428e-07
-1.94625e-09
2.50779e-07
-2.54966e-09
2.51159e-07
-2.87293e-09
2.51565e-07
-3.12133e-09
2.51987e-07
-3.28953e-09
2.52418e-07
-3.38614e-09
2.52854e-07
-3.44692e-09
2.53295e-07
-3.48888e-09
2.53738e-07
-3.51584e-09
2.54182e-07
-3.53306e-09
2.54629e-07
-3.54399e-09
2.55075e-07
-3.54681e-09
2.5552e-07
-3.53992e-09
2.55964e-07
-3.52319e-09
2.56403e-07
-3.49663e-09
2.56838e-07
-3.46014e-09
2.57266e-07
-3.41491e-09
2.57687e-07
-3.36141e-09
2.581e-07
-3.29695e-09
2.58502e-07
-3.21974e-09
2.58892e-07
-3.13054e-09
2.59268e-07
-3.03175e-09
2.59629e-07
-2.92696e-09
2.59974e-07
-2.82037e-09
2.60303e-07
-2.7163e-09
2.60617e-07
-2.6191e-09
2.60915e-07
-2.53287e-09
2.61201e-07
-2.46107e-09
2.61473e-07
-2.40656e-09
2.61734e-07
-2.37157e-09
2.61984e-07
-2.35799e-09
2.62224e-07
-2.36756e-09
2.62454e-07
-2.40165e-09
2.62673e-07
-2.46146e-09
2.62881e-07
-2.54858e-09
2.63076e-07
-2.664e-09
2.63256e-07
-2.80707e-09
2.6342e-07
-2.97485e-09
-3.16118e-09
2.63567e-07
2.50152e-07
-9.04012e-10
2.50478e-07
-2.27279e-09
2.50845e-07
-2.91616e-09
2.51234e-07
-3.26228e-09
2.51648e-07
-3.53504e-09
2.52075e-07
-3.71665e-09
2.52509e-07
-3.82016e-09
2.52948e-07
-3.88603e-09
2.53391e-07
-3.93155e-09
2.53836e-07
-3.96055e-09
2.54282e-07
-3.97932e-09
2.5473e-07
-3.99158e-09
2.55177e-07
-3.99459e-09
2.55624e-07
-3.98654e-09
2.56068e-07
-3.96731e-09
2.56508e-07
-3.93688e-09
2.56943e-07
-3.89505e-09
2.57372e-07
-3.84352e-09
2.57793e-07
-3.78289e-09
2.58206e-07
-3.70961e-09
2.58608e-07
-3.62152e-09
2.58997e-07
-3.51949e-09
2.59371e-07
-3.40623e-09
2.5973e-07
-3.28583e-09
2.60073e-07
-3.16303e-09
2.60399e-07
-3.04265e-09
2.60709e-07
-2.92952e-09
2.61005e-07
-2.82813e-09
2.61286e-07
-2.74219e-09
2.61554e-07
-2.67468e-09
2.6181e-07
-2.62771e-09
2.62055e-07
-2.60303e-09
2.6229e-07
-2.60207e-09
2.62514e-07
-2.62575e-09
2.62727e-07
-2.67473e-09
2.62929e-07
-2.75021e-09
2.63118e-07
-2.85283e-09
2.63292e-07
-2.98158e-09
2.6345e-07
-3.13351e-09
-3.30268e-09
2.63592e-07
2.50182e-07
-1.08611e-09
2.50543e-07
-2.63332e-09
2.50926e-07
-3.29924e-09
2.51326e-07
-3.66287e-09
2.51748e-07
-3.95719e-09
2.52181e-07
-4.1493e-09
2.52619e-07
-4.25814e-09
2.53061e-07
-4.32821e-09
2.53506e-07
-4.37661e-09
2.53953e-07
-4.407e-09
2.544e-07
-4.42696e-09
2.54849e-07
-4.44036e-09
2.55298e-07
-4.44328e-09
2.55745e-07
-4.43374e-09
2.56189e-07
-4.41167e-09
2.56629e-07
-4.37696e-09
2.57064e-07
-4.32933e-09
2.57491e-07
-4.27114e-09
2.57912e-07
-4.20318e-09
2.58323e-07
-4.12078e-09
2.58723e-07
-4.02141e-09
2.59109e-07
-3.90608e-09
2.59481e-07
-3.77778e-09
2.59836e-07
-3.64119e-09
2.60175e-07
-3.5016e-09
2.60496e-07
-3.36432e-09
2.60802e-07
-3.23472e-09
2.61091e-07
-3.11771e-09
2.61366e-07
-3.01723e-09
2.61628e-07
-2.93636e-09
2.61877e-07
-2.8771e-09
2.62115e-07
-2.84102e-09
2.62343e-07
-2.8293e-09
2.62559e-07
-2.84234e-09
2.62765e-07
-2.88023e-09
2.62958e-07
-2.94389e-09
2.63139e-07
-3.03357e-09
2.63306e-07
-3.14801e-09
2.63456e-07
-3.28419e-09
-3.43654e-09
2.6359e-07
2.50223e-07