/*--------------------------------*- C++ -*----------------------------------*\
| =========                 |                                                 |
| \\      /  F ield         | OpenFOAM: The Open Source CFD Toolbox           |
|  \\    /   O peration     | Version:  2306                                  |
|   \\  /    A nd           | Website:  www.openfoam.com                      |
|    \\/     M anipulation  |                                                 |
\*---------------------------------------------------------------------------*/
FoamFile
{
    version     2.0;
    format      ascii;
    arch        "LSB;label=32;scalar=64";
    class       volVectorField;
    location    "1000";
    object      U;
}
// * * * * * * * * * * * * * * * * * * * * * * * * * * * * * * * * * * * * * //

dimensions      [0 1 -1 0 0 0 0];

internalField   nonuniform List<vector> 
25600
(
(0.977307 0.00314284 0)
(0.95591 0.0058844 0)
(0.929884 0.00633988 0)
(0.903113 0.00648136 0)
(0.87732 0.00647212 0)
(0.852321 0.00634461 0)
(0.827858 0.00614667 0)
(0.803953 0.00590564 0)
(0.780682 0.00563751 0)
(0.758073 0.00535103 0)
(0.736139 0.00505522 0)
(0.714931 0.00471215 0)
(0.694284 0.00433221 0)
(0.674201 0.00398034 0)
(0.654785 0.00365477 0)
(0.636168 0.00332258 0)
(0.618529 0.00300853 0)
(0.601757 0.00274298 0)
(0.58576 0.00251584 0)
(0.570616 0.00229311 0)
(0.556485 0.00204631 0)
(0.543606 0.00177634 0)
(0.532037 0.00150268 0)
(0.52178 0.00124065 0)
(0.51282 0.000970896 0)
(0.505158 0.000701943 0)
(0.498747 0.000466571 0)
(0.493473 0.00027451 0)
(0.489191 0.000122199 0)
(0.485756 9.03372e-06 0)
(0.483036 -8.11181e-05 0)
(0.480924 -0.000153292 0)
(0.479336 -0.000212898 0)
(0.478218 -0.00027577 0)
(0.477559 -0.000339637 0)
(0.477362 -0.000404356 0)
(0.477578 -0.0004533 0)
(0.478169 -0.000589407 0)
(0.480131 -0.000579843 0)
(0.480176 -0.00141812 0)
(1.00123 0.00759615 0)
(1.00608 0.00749012 0)
(1.00509 0.00703355 0)
(1.00239 0.00687505 0)
(0.999183 0.00680926 0)
(0.995392 0.00672724 0)
(0.990841 0.00663606 0)
(0.985596 0.00655367 0)
(0.979772 0.00648197 0)
(0.973435 0.00641121 0)
(0.966638 0.00632555 0)
(0.959418 0.00625549 0)
(0.951953 0.00622386 0)
(0.944298 0.00618768 0)
(0.936447 0.00611133 0)
(0.928389 0.00598904 0)
(0.920086 0.00582711 0)
(0.91165 0.00563848 0)
(0.903202 0.00543304 0)
(0.894781 0.0051978 0)
(0.886383 0.00490093 0)
(0.877975 0.00454336 0)
(0.869667 0.00415602 0)
(0.861525 0.00375721 0)
(0.853612 0.00335882 0)
(0.845934 0.00296589 0)
(0.838535 0.00258609 0)
(0.831466 0.0022359 0)
(0.824738 0.00192597 0)
(0.818356 0.00165127 0)
(0.812322 0.00140853 0)
(0.806637 0.00119285 0)
(0.801304 0.000997389 0)
(0.796326 0.000816694 0)
(0.791699 0.000642217 0)
(0.787436 0.000469571 0)
(0.78362 0.000290468 0)
(0.780391 2.65625e-05 0)
(0.777841 -0.000263599 0)
(0.77646 -0.00149502 0)
(1.00177 0.00527778 0)
(1.00652 0.00691332 0)
(1.00896 0.00684822 0)
(1.01011 0.00696733 0)
(1.01088 0.00718595 0)
(1.01155 0.00734683 0)
(1.01202 0.00745554 0)
(1.01228 0.00751272 0)
(1.01237 0.00754642 0)
(1.01228 0.00756304 0)
(1.01202 0.00754327 0)
(1.01156 0.00749611 0)
(1.0109 0.00743283 0)
(1.01004 0.00734078 0)
(1.00895 0.00721552 0)
(1.00763 0.00706064 0)
(1.00605 0.00689005 0)
(1.00424 0.00671375 0)
(1.00223 0.00652581 0)
(1.00003 0.0063124 0)
(0.997612 0.00606139 0)
(0.994891 0.0057711 0)
(0.991869 0.00544966 0)
(0.988564 0.00510861 0)
(0.985001 0.00475658 0)
(0.981192 0.00441125 0)
(0.977153 0.00406052 0)
(0.972872 0.00370776 0)
(0.968449 0.00337756 0)
(0.963937 0.00307858 0)
(0.959377 0.0028075 0)
(0.954806 0.00255901 0)
(0.950261 0.00232578 0)
(0.945776 0.00209813 0)
(0.941389 0.00186591 0)
(0.937145 0.00161755 0)
(0.933103 0.00133461 0)
(0.929359 0.000941505 0)
(0.92597 0.000409203 0)
(0.923159 -0.000921529 0)
(1.0014 0.00444401 0)
(1.00545 0.00602363 0)
(1.00826 0.00624834 0)
(1.00987 0.00654807 0)
(1.01129 0.00682991 0)
(1.01275 0.00697756 0)
(1.01412 0.00704294 0)
(1.01539 0.00707864 0)
(1.01657 0.00709534 0)
(1.0178 0.00708705 0)
(1.01901 0.00707823 0)
(1.01998 0.00707394 0)
(1.02091 0.00705303 0)
(1.02179 0.00701351 0)
(1.0226 0.00695349 0)
(1.02332 0.00687348 0)
(1.02396 0.00678242 0)
(1.0245 0.00667165 0)
(1.02494 0.00653081 0)
(1.02528 0.00636535 0)
(1.02551 0.00616965 0)
(1.0256 0.00594 0)
(1.02554 0.00568049 0)
(1.02531 0.0054007 0)
(1.0249 0.00510867 0)
(1.02432 0.00481127 0)
(1.02356 0.00452314 0)
(1.02261 0.00425597 0)
(1.02147 0.00400883 0)
(1.02016 0.00377878 0)
(1.01869 0.00356387 0)
(1.01708 0.00335372 0)
(1.01535 0.00314325 0)
(1.0135 0.00292908 0)
(1.01158 0.0027039 0)
(1.0096 0.0024559 0)
(1.00761 0.00215085 0)
(1.00564 0.00171915 0)
(1.00376 0.00109421 0)
(1.0019 -0.000130871 0)
(1.00108 0.00328472 0)
(1.00439 0.00550804 0)
(1.00713 0.00580979 0)
(1.00893 0.00612124 0)
(1.01056 0.00641778 0)
(1.01225 0.00658645 0)
(1.0139 0.00667643 0)
(1.01547 0.00673374 0)
(1.01699 0.00676933 0)
(1.01849 0.00678259 0)
(1.01997 0.00679219 0)
(1.02142 0.00679886 0)
(1.02284 0.00678619 0)
(1.02423 0.00675516 0)
(1.02558 0.00670423 0)
(1.02688 0.00663199 0)
(1.02814 0.00653577 0)
(1.02941 0.00642602 0)
(1.03053 0.00630625 0)
(1.0316 0.00616127 0)
(1.03262 0.00598512 0)
(1.03356 0.00577703 0)
(1.0344 0.00554234 0)
(1.03515 0.00529046 0)
(1.03579 0.00502943 0)
(1.03633 0.00476836 0)
(1.03676 0.00451543 0)
(1.0371 0.00427429 0)
(1.03734 0.00404615 0)
(1.0375 0.00383349 0)
(1.03757 0.00363546 0)
(1.03758 0.00344939 0)
(1.03751 0.00326848 0)
(1.03737 0.00308118 0)
(1.03718 0.00287526 0)
(1.03695 0.00263495 0)
(1.0367 0.00233406 0)
(1.03644 0.0019054 0)
(1.03618 0.00127604 0)
(1.03577 0.000188159 0)
(1.00079 0.00267889 0)
(1.00344 0.00479623 0)
(1.00602 0.00528706 0)
(1.00789 0.00564702 0)
(1.0096 0.00596833 0)
(1.0114 0.00615755 0)
(1.01316 0.00626196 0)
(1.01486 0.00632904 0)
(1.01653 0.00637064 0)
(1.01818 0.00638877 0)
(1.01981 0.00640291 0)
(1.02143 0.0064137 0)
(1.02304 0.00640627 0)
(1.02463 0.00638069 0)
(1.02619 0.00633621 0)
(1.02772 0.00627231 0)
(1.02921 0.00618767 0)
(1.03067 0.00609025 0)
(1.03208 0.00598239 0)
(1.03346 0.00584942 0)
(1.03477 0.00568729 0)
(1.03603 0.00549692 0)
(1.0372 0.00528303 0)
(1.0383 0.00505347 0)
(1.03931 0.0048153 0)
(1.04024 0.00457586 0)
(1.04108 0.00434163 0)
(1.04185 0.00411756 0)
(1.04256 0.00390698 0)
(1.0432 0.00371172 0)
(1.0438 0.00353005 0)
(1.04435 0.00335668 0)
(1.04488 0.00318452 0)
(1.04537 0.0030042 0)
(1.04584 0.00280424 0)
(1.04631 0.00256824 0)
(1.04679 0.00226699 0)
(1.04727 0.0018387 0)
(1.04773 0.00121878 0)
(1.04804 0.000234452 0)
(1.00059 0.00215584 0)
(1.00272 0.00425579 0)
(1.00509 0.0047778 0)
(1.00694 0.00516619 0)
(1.00867 0.00550504 0)
(1.01048 0.00570751 0)
(1.0123 0.00581946 0)
(1.01407 0.00589198 0)
(1.01581 0.00593909 0)
(1.01755 0.00596331 0)
(1.01927 0.00598035 0)
(1.02097 0.00599292 0)
(1.02268 0.00598945 0)
(1.02437 0.00596894 0)
(1.02603 0.00593097 0)
(1.02768 0.00587502 0)
(1.02929 0.00579942 0)
(1.03087 0.00571219 0)
(1.03241 0.00561413 0)
(1.03392 0.00549271 0)
(1.03537 0.0053446 0)
(1.03678 0.00517088 0)
(1.03811 0.00497555 0)
(1.03937 0.00476536 0)
(1.04055 0.00454676 0)
(1.04166 0.00432624 0)
(1.04269 0.00410988 0)
(1.04365 0.00390251 0)
(1.04456 0.00370685 0)
(1.04541 0.00352378 0)
(1.04622 0.00335141 0)
(1.047 0.00318488 0)
(1.04776 0.00301771 0)
(1.0485 0.00284078 0)
(1.04923 0.00264197 0)
(1.04996 0.00240379 0)
(1.0507 0.00209791 0)
(1.05145 0.00167022 0)
(1.05217 0.001065 0)
(1.05274 0.000166311 0)
(1.00045 0.00175459 0)
(1.00218 0.00369709 0)
(1.00435 0.00433938 0)
(1.00615 0.00472594 0)
(1.00786 0.00505382 0)
(1.00965 0.00525639 0)
(1.01147 0.00537028 0)
(1.01326 0.00544502 0)
(1.01504 0.00549529 0)
(1.01682 0.00552392 0)
(1.01858 0.00554331 0)
(1.02035 0.00555698 0)
(1.0221 0.00555634 0)
(1.02385 0.00553974 0)
(1.02558 0.00550695 0)
(1.02729 0.00545759 0)
(1.02897 0.00539045 0)
(1.03062 0.00531106 0)
(1.03223 0.00522059 0)
(1.03381 0.00510945 0)
(1.03535 0.00497427 0)
(1.03683 0.00481589 0)
(1.03825 0.00463774 0)
(1.03961 0.00444567 0)
(1.04088 0.00424557 0)
(1.04209 0.00404322 0)
(1.04323 0.00384405 0)
(1.0443 0.00365225 0)
(1.04532 0.00347005 0)
(1.04628 0.00329802 0)
(1.04721 0.00313432 0)
(1.04811 0.00297441 0)
(1.04898 0.00281183 0)
(1.04984 0.00263748 0)
(1.0507 0.00243911 0)
(1.05156 0.00219927 0)
(1.05242 0.00189131 0)
(1.05327 0.00146799 0)
(1.05409 0.000882002 0)
(1.05476 5.66523e-05 0)
(1.00035 0.00144022 0)
(1.00177 0.00323951 0)
(1.00375 0.00390567 0)
(1.0055 0.00428655 0)
(1.00717 0.00460578 0)
(1.00894 0.00480805 0)
(1.01074 0.00492203 0)
(1.01253 0.00499636 0)
(1.01432 0.00504713 0)
(1.01611 0.00507765 0)
(1.01789 0.00509797 0)
(1.01968 0.00511189 0)
(1.02147 0.00511305 0)
(1.02324 0.00509949 0)
(1.02501 0.00507104 0)
(1.02676 0.00502744 0)
(1.02848 0.00496788 0)
(1.03017 0.00489616 0)
(1.03183 0.00481331 0)
(1.03345 0.00471203 0)
(1.03504 0.004589 0)
(1.03657 0.00444499 0)
(1.03805 0.00428305 0)
(1.03945 0.00410819 0)
(1.04079 0.00392568 0)
(1.04206 0.00374065 0)
(1.04327 0.00355783 0)
(1.04441 0.00338086 0)
(1.04549 0.00321163 0)
(1.04653 0.00305041 0)
(1.04753 0.00289531 0)
(1.0485 0.00274189 0)
(1.04945 0.00258374 0)
(1.05038 0.00241192 0)
(1.0513 0.00221441 0)
(1.05223 0.00197416 0)
(1.05315 0.00166626 0)
(1.05406 0.00124977 0)
(1.05491 0.000685344 0)
(1.05563 -7.6673e-05 0)
(1.00028 0.00119212 0)
(1.00147 0.00282019 0)
(1.00327 0.00349274 0)
(1.00496 0.00386552 0)
(1.00661 0.0041698 0)
(1.00834 0.00436649 0)
(1.01011 0.00447764 0)
(1.01189 0.00454944 0)
(1.01368 0.00459886 0)
(1.01547 0.00462949 0)
(1.01726 0.00464958 0)
(1.01906 0.00466299 0)
(1.02085 0.00466506 0)
(1.02264 0.00465376 0)
(1.02442 0.00462892 0)
(1.02619 0.00459036 0)
(1.02793 0.00453751 0)
(1.02965 0.00447301 0)
(1.03133 0.00439765 0)
(1.03299 0.00430579 0)
(1.0346 0.0041944 0)
(1.03617 0.00406414 0)
(1.03767 0.00391768 0)
(1.03911 0.00375931 0)
(1.04049 0.00359368 0)
(1.0418 0.00342529 0)
(1.04305 0.00325826 0)
(1.04423 0.0030957 0)
(1.04537 0.00293915 0)
(1.04645 0.00278861 0)
(1.0475 0.00264207 0)
(1.04852 0.00249519 0)
(1.04951 0.00234169 0)
(1.05049 0.00217285 0)
(1.05146 0.00197695 0)
(1.05242 0.0017376 0)
(1.05337 0.00143177 0)
(1.0543 0.0010243 0)
(1.05518 0.00048283 0)
(1.05592 -0.000222806 0)
(1.00023 0.000991254 0)
(1.00124 0.00244199 0)
(1.00289 0.00310104 0)
(1.00453 0.00345917 0)
(1.00614 0.00374345 0)
(1.00784 0.00393093 0)
(1.00959 0.00403751 0)
(1.01136 0.00410558 0)
(1.01313 0.00415251 0)
(1.01492 0.0041821 0)
(1.01671 0.0042012 0)
(1.0185 0.00421355 0)
(1.0203 0.00421586 0)
(1.02209 0.0042062 0)
(1.02388 0.00418435 0)
(1.02565 0.0041502 0)
(1.0274 0.00410333 0)
(1.02913 0.00404556 0)
(1.03083 0.00397743 0)
(1.03249 0.00389462 0)
(1.03412 0.00379442 0)
(1.0357 0.00367735 0)
(1.03723 0.00354573 0)
(1.03869 0.00340321 0)
(1.0401 0.00325384 0)
(1.04143 0.00310154 0)
(1.04271 0.00294982 0)
(1.04392 0.0028013 0)
(1.04509 0.00265719 0)
(1.0462 0.00251721 0)
(1.04728 0.00237926 0)
(1.04833 0.00223909 0)
(1.04936 0.00209057 0)
(1.05036 0.00192524 0)
(1.05136 0.00173177 0)
(1.05234 0.00149461 0)
(1.05331 0.00119267 0)
(1.05425 0.00079599 0)
(1.05513 0.000278284 0)
(1.05588 -0.00037747 0)
(1.00019 0.000825291 0)
(1.00106 0.00210061 0)
(1.00258 0.00272712 0)
(1.00417 0.0030646 0)
(1.00575 0.00332576 0)
(1.00743 0.00350115 0)
(1.00916 0.00360159 0)
(1.01091 0.00366498 0)
(1.01268 0.00370862 0)
(1.01445 0.00373641 0)
(1.01623 0.00375406 0)
(1.01802 0.0037651 0)
(1.01982 0.00376727 0)
(1.02161 0.00375882 0)
(1.02339 0.00373953 0)
(1.02516 0.00370932 0)
(1.02691 0.00366787 0)
(1.02864 0.00361642 0)
(1.03035 0.00355532 0)
(1.03202 0.00348124 0)
(1.03366 0.00339182 0)
(1.03525 0.00328744 0)
(1.03678 0.00317009 0)
(1.03826 0.00304285 0)
(1.03967 0.00290919 0)
(1.04103 0.00277246 0)
(1.04232 0.00263564 0)
(1.04355 0.00250084 0)
(1.04474 0.00236895 0)
(1.04587 0.00223944 0)
(1.04697 0.00211011 0)
(1.04804 0.00197685 0)
(1.04909 0.00183365 0)
(1.05011 0.00167235 0)
(1.05112 0.00148213 0)
(1.05212 0.00124834 0)
(1.05309 0.000951871 0)
(1.05404 0.000567327 0)
(1.05491 7.36855e-05 0)
(1.05566 -0.000537169 0)
(1.00016 0.000685301 0)
(1.00092 0.00179012 0)
(1.00233 0.00236881 0)
(1.00387 0.00268039 0)
(1.00544 0.00291603 0)
(1.00708 0.00307667 0)
(1.0088 0.0031694 0)
(1.01054 0.00322731 0)
(1.0123 0.00326708 0)
(1.01406 0.00329256 0)
(1.01584 0.00330849 0)
(1.01762 0.00331813 0)
(1.01941 0.00331998 0)
(1.02119 0.00331253 0)
(1.02297 0.00329555 0)
(1.02474 0.00326897 0)
(1.02649 0.00323256 0)
(1.02822 0.00318716 0)
(1.02992 0.00313296 0)
(1.0316 0.00306737 0)
(1.03323 0.0029884 0)
(1.03482 0.0028963 0)
(1.03636 0.00279274 0)
(1.03784 0.00268029 0)
(1.03927 0.00256186 0)
(1.04063 0.00244027 0)
(1.04193 0.00231796 0)
(1.04318 0.0021966 0)
(1.04437 0.00207674 0)
(1.04552 0.00195763 0)
(1.04664 0.001837 0)
(1.04772 0.00171082 0)
(1.04877 0.00157328 0)
(1.04981 0.00141653 0)
(1.05082 0.0012303 0)
(1.05182 0.00100095 0)
(1.0528 0.000711287 0)
(1.05374 0.000339883 0)
(1.0546 -0.00012977 0)
(1.05535 -0.00069983 0)
(1.00014 0.000564651 0)
(1.00082 0.00150525 0)
(1.00214 0.00202444 0)
(1.00364 0.00230521 0)
(1.00517 0.0025133 0)
(1.0068 0.00265687 0)
(1.0085 0.00274044 0)
(1.01023 0.00279217 0)
(1.01198 0.00282757 0)
(1.01374 0.00285035 0)
(1.01551 0.00286441 0)
(1.01729 0.00287264 0)
(1.01907 0.00287413 0)
(1.02085 0.00286759 0)
(1.02262 0.00285278 0)
(1.02439 0.00282968 0)
(1.02613 0.0027981 0)
(1.02786 0.00275857 0)
(1.02956 0.0027112 0)
(1.03123 0.00265397 0)
(1.03286 0.00258521 0)
(1.03445 0.00250508 0)
(1.03599 0.00241493 0)
(1.03747 0.00231687 0)
(1.0389 0.00221329 0)
(1.04026 0.00210649 0)
(1.04157 0.00199838 0)
(1.04282 0.00189023 0)
(1.04403 0.00178225 0)
(1.04518 0.0016735 0)
(1.0463 0.00156165 0)
(1.04739 0.00144274 0)
(1.04845 0.00131118 0)
(1.04949 0.00115949 0)
(1.05051 0.000977946 0)
(1.0515 0.000753986 0)
(1.05248 0.000472222 0)
(1.0534 0.000114697 0)
(1.05426 -0.000331314 0)
(1.055 -0.000863928 0)
(1.00013 0.000458395 0)
(1.00074 0.00124134 0)
(1.00198 0.00169224 0)
(1.00344 0.00193772 0)
(1.00496 0.00211657 0)
(1.00657 0.00224112 0)
(1.00826 0.00231422 0)
(1.00998 0.00235914 0)
(1.01172 0.00238977 0)
(1.01348 0.00240953 0)
(1.01524 0.00242159 0)
(1.01702 0.00242846 0)
(1.01879 0.00242958 0)
(1.02057 0.00242392 0)
(1.02234 0.00241125 0)
(1.0241 0.00239155 0)
(1.02584 0.00236467 0)
(1.02756 0.00233095 0)
(1.02926 0.0022904 0)
(1.03092 0.00224146 0)
(1.03255 0.00218277 0)
(1.03414 0.00211438 0)
(1.03567 0.00203738 0)
(1.03716 0.00195341 0)
(1.03858 0.00186439 0)
(1.03995 0.00177208 0)
(1.04126 0.00167796 0)
(1.04251 0.00158284 0)
(1.04372 0.00148665 0)
(1.04488 0.00138827 0)
(1.046 0.00128528 0)
(1.04709 0.00117386 0)
(1.04815 0.00104861 0)
(1.04919 0.000902439 0)
(1.0502 0.000726246 0)
(1.0512 0.000508505 0)
(1.05216 0.000235555 0)
(1.05307 -0.000107573 0)
(1.05392 -0.000530448 0)
(1.05465 -0.00102849 0)
(1.00012 0.000362809 0)
(1.00068 0.000994286 0)
(1.00186 0.00137039 0)
(1.00329 0.00157668 0)
(1.00479 0.00172489 0)
(1.00639 0.00182884 0)
(1.00807 0.0018903 0)
(1.00978 0.00192784 0)
(1.01152 0.00195335 0)
(1.01327 0.00196984 0)
(1.01503 0.00197981 0)
(1.0168 0.00198532 0)
(1.01857 0.00198611 0)
(1.02034 0.00198133 0)
(1.02211 0.00197079 0)
(1.02386 0.00195447 0)
(1.0256 0.00193225 0)
(1.02732 0.0019043 0)
(1.02901 0.0018706 0)
(1.03067 0.00182995 0)
(1.0323 0.00178124 0)
(1.03388 0.00172446 0)
(1.03542 0.0016604 0)
(1.0369 0.00159032 0)
(1.03832 0.00151563 0)
(1.03969 0.00143764 0)
(1.04099 0.00135734 0)
(1.04225 0.00127515 0)
(1.04346 0.00119072 0)
(1.04462 0.00110272 0)
(1.04574 0.00100874 0)
(1.04683 0.000905016 0)
(1.04789 0.000786415 0)
(1.04892 0.000646233 0)
(1.04993 0.000475996 0)
(1.05091 0.00026521 0)
(1.05187 1.82495e-06 0)
(1.05277 -0.000326555 0)
(1.0536 -0.000726896 0)
(1.05433 -0.00119287 0)
(1.00011 0.000275027 0)
(1.00064 0.000760389 0)
(1.00177 0.00105703 0)
(1.00317 0.00122087 0)
(1.00466 0.00133732 0)
(1.00625 0.0014194 0)
(1.00792 0.00146823 0)
(1.00963 0.00149793 0)
(1.01136 0.00151804 0)
(1.0131 0.00153104 0)
(1.01486 0.00153882 0)
(1.01663 0.00154302 0)
(1.0184 0.00154349 0)
(1.02017 0.00153961 0)
(1.02193 0.00153122 0)
(1.02368 0.00151827 0)
(1.02542 0.00150067 0)
(1.02713 0.0014785 0)
(1.02882 0.00145169 0)
(1.03048 0.00141934 0)
(1.0321 0.00138058 0)
(1.03368 0.00133531 0)
(1.03521 0.00128408 0)
(1.03669 0.00122774 0)
(1.03811 0.00116725 0)
(1.03948 0.00110345 0)
(1.04079 0.00103687 0)
(1.04204 0.000967568 0)
(1.04324 0.000894897 0)
(1.0444 0.000817378 0)
(1.04553 0.000732544 0)
(1.04661 0.000636765 0)
(1.04767 0.000525148 0)
(1.0487 0.0003914 0)
(1.0497 0.000227685 0)
(1.05067 2.45081e-05 0)
(1.05161 -0.000228693 0)
(1.0525 -0.000542104 0)
(1.05332 -0.000920554 0)
(1.05404 -0.00135662 0)
(1.0001 0.000192792 0)
(1.00061 0.000536339 0)
(1.00171 0.000750281 0)
(1.00309 0.000869124 0)
(1.00457 0.000952923 0)
(1.00615 0.0010122 0)
(1.00781 0.00104762 0)
(1.00951 0.00106908 0)
(1.01124 0.00108356 0)
(1.01298 0.00109291 0)
(1.01474 0.00109844 0)
(1.01651 0.00110132 0)
(1.01827 0.00110151 0)
(1.02004 0.00109855 0)
(1.0218 0.00109231 0)
(1.02355 0.00108274 0)
(1.02528 0.00106976 0)
(1.027 0.00105339 0)
(1.02868 0.00103351 0)
(1.03034 0.00100949 0)
(1.03196 0.000980646 0)
(1.03354 0.000946846 0)
(1.03506 0.000908368 0)
(1.03654 0.000865688 0)
(1.03796 0.000819316 0)
(1.03932 0.000769631 0)
(1.04063 0.00071674 0)
(1.04188 0.000660318 0)
(1.04309 0.000599453 0)
(1.04424 0.000532512 0)
(1.04536 0.000457005 0)
(1.04644 0.000369421 0)
(1.0475 0.000265124 0)
(1.04852 0.000138242 0)
(1.04951 -1.84257e-05 0)
(1.05048 -0.000213415 0)
(1.0514 -0.000455922 0)
(1.05228 -0.000754243 0)
(1.05309 -0.00111146 0)
(1.0538 -0.00151953 0)
(1.0001 0.000114257 0)
(1.00059 0.000319113 0)
(1.00167 0.000448247 0)
(1.00303 0.000520266 0)
(1.00451 0.000570781 0)
(1.00608 0.000606579 0)
(1.00773 0.000628026 0)
(1.00944 0.000640972 0)
(1.01116 0.000649662 0)
(1.01291 0.000655239 0)
(1.01466 0.00065847 0)
(1.01643 0.000660053 0)
(1.01819 0.000659967 0)
(1.01996 0.000657938 0)
(1.02172 0.000653858 0)
(1.02346 0.000647683 0)
(1.02519 0.000639329 0)
(1.02691 0.000628757 0)
(1.02859 0.000615857 0)
(1.03025 0.000600189 0)
(1.03186 0.000581272 0)
(1.03344 0.000558917 0)
(1.03497 0.000533153 0)
(1.03644 0.000504088 0)
(1.03786 0.000471794 0)
(1.03922 0.000436203 0)
(1.04052 0.000396997 0)
(1.04178 0.000353491 0)
(1.04298 0.000304509 0)
(1.04413 0.000248275 0)
(1.04525 0.000182283 0)
(1.04633 0.000103149 0)
(1.04737 6.50232e-06 0)
(1.04839 -0.000113103 0)
(1.04938 -0.000262239 0)
(1.05033 -0.000448529 0)
(1.05124 -0.000679928 0)
(1.05211 -0.000963109 0)
(1.0529 -0.00129975 0)
(1.0536 -0.0016815 0)
(1.0001 3.78446e-05 0)
(1.00058 0.000105899 0)
(1.00165 0.000149048 0)
(1.003 0.000173149 0)
(1.00448 0.000189996 0)
(1.00604 0.000201928 0)
(1.0077 0.000209057 0)
(1.0094 0.000213315 0)
(1.01113 0.00021612 0)
(1.01287 0.000217852 0)
(1.01462 0.000218752 0)
(1.01639 0.000219041 0)
(1.01815 0.000218696 0)
(1.01992 0.000217603 0)
(1.02167 0.000215695 0)
(1.02342 0.000212918 0)
(1.02515 0.000209192 0)
(1.02686 0.000204438 0)
(1.02855 0.000198539 0)
(1.0302 0.000191247 0)
(1.03182 0.000182266 0)
(1.03339 0.000171354 0)
(1.03492 0.000158296 0)
(1.03639 0.000142835 0)
(1.03781 0.000124618 0)
(1.03917 0.000103134 0)
(1.04047 7.76474e-05 0)
(1.04172 4.71184e-05 0)
(1.04292 1.01181e-05 0)
(1.04407 -3.52679e-05 0)
(1.04518 -9.15494e-05 0)
(1.04626 -0.000161979 0)
(1.0473 -0.000250655 0)
(1.04831 -0.000362598 0)
(1.04929 -0.000503759 0)
(1.05023 -0.000680902 0)
(1.05114 -0.000900855 0)
(1.05199 -0.00116891 0)
(1.05277 -0.0014856 0)
(1.05346 -0.00184252 0)
(1.0001 -3.78741e-05 0)
(1.00058 -0.000105988 0)
(1.00165 -0.000149202 0)
(1.003 -0.000173383 0)
(1.00448 -0.000190332 0)
(1.00604 -0.000202396 0)
(1.0077 -0.000209698 0)
(1.0094 -0.000214185 0)
(1.01113 -0.000217296 0)
(1.01287 -0.000219434 0)
(1.01462 -0.000220874 0)
(1.01639 -0.000221877 0)
(1.01815 -0.000222476 0)
(1.01992 -0.000222627 0)
(1.02167 -0.000222358 0)
(1.02342 -0.000221732 0)
(1.02515 -0.000220824 0)
(1.02686 -0.000219751 0)
(1.02854 -0.000218634 0)
(1.0302 -0.000217532 0)
(1.03181 -0.000216565 0)
(1.03339 -0.00021602 0)
(1.03491 -0.000216357 0)
(1.03639 -0.000218192 0)
(1.0378 -0.000222302 0)
(1.03916 -0.000229636 0)
(1.04046 -0.00024134 0)
(1.04171 -0.000258805 0)
(1.04291 -0.000283708 0)
(1.04406 -0.000318093 0)
(1.04517 -0.000364467 0)
(1.04624 -0.000425942 0)
(1.04728 -0.000506345 0)
(1.04828 -0.000610264 0)
(1.04925 -0.000743049 0)
(1.05018 -0.000910654 0)
(1.05108 -0.00111889 0)
(1.05192 -0.00137187 0)
(1.05269 -0.00166922 0)
(1.05338 -0.00200262 0)
(1.0001 -0.000114286 0)
(1.00059 -0.000319201 0)
(1.00167 -0.0004484 0)
(1.00303 -0.000520499 0)
(1.00451 -0.000571116 0)
(1.00608 -0.000607045 0)
(1.00773 -0.000628663 0)
(1.00944 -0.000641838 0)
(1.01116 -0.000650832 0)
(1.01291 -0.000656812 0)
(1.01466 -0.000660581 0)
(1.01643 -0.000662875 0)
(1.01819 -0.000663728 0)
(1.01996 -0.000662937 0)
(1.02171 -0.000660488 0)
(1.02346 -0.000656455 0)
(1.02519 -0.000650907 0)
(1.0269 -0.000644001 0)
(1.02859 -0.000635863 0)
(1.03024 -0.000626359 0)
(1.03186 -0.000615423 0)
(1.03343 -0.000603393 0)
(1.03496 -0.000590971 0)
(1.03643 -0.000579128 0)
(1.03785 -0.00056907 0)
(1.03921 -0.00056218 0)
(1.04051 -0.000560013 0)
(1.04175 -0.000564306 0)
(1.04295 -0.000576981 0)
(1.0441 -0.000600203 0)
(1.0452 -0.000636469 0)
(1.04627 -0.000688749 0)
(1.0473 -0.000760589 0)
(1.0483 -0.000856151 0)
(1.04926 -0.000980195 0)
(1.05019 -0.00113792 0)
(1.05107 -0.00133423 0)
(1.0519 -0.00157221 0)
(1.05266 -0.0018508 0)
(1.05334 -0.00216184 0)
(1.0001 -0.000192821 0)
(1.00061 -0.000536426 0)
(1.00171 -0.000750432 0)
(1.00309 -0.000869354 0)
(1.00457 -0.000953253 0)
(1.00615 -0.00101266 0)
(1.00781 -0.00104825 0)
(1.00951 -0.00106994 0)
(1.01124 -0.00108471 0)
(1.01298 -0.00109446 0)
(1.01474 -0.00110053 0)
(1.01651 -0.00110412 0)
(1.01827 -0.00110523 0)
(1.02004 -0.0011035 0)
(1.0218 -0.00109887 0)
(1.02355 -0.00109143 0)
(1.02528 -0.00108123 0)
(1.02699 -0.00106849 0)
(1.02868 -0.00105334 0)
(1.03033 -0.00103543 0)
(1.03195 -0.0010145 0)
(1.03353 -0.000990944 0)
(1.03505 -0.000965697 0)
(1.03653 -0.000940099 0)
(1.03794 -0.00091578 0)
(1.0393 -0.00089456 0)
(1.0406 -0.000878403 0)
(1.04185 -0.000869393 0)
(1.04304 -0.000869691 0)
(1.04419 -0.00088158 0)
(1.04529 -0.000907539 0)
(1.04635 -0.000950386 0)
(1.04738 -0.00101339 0)
(1.04837 -0.00110028 0)
(1.04932 -0.00121526 0)
(1.05024 -0.0013628 0)
(1.05111 -0.00154701 0)
(1.05193 -0.00177011 0)
(1.05268 -0.00203046 0)
(1.05336 -0.00232017 0)
(1.00011 -0.000275056 0)
(1.00064 -0.000760475 0)
(1.00177 -0.00105718 0)
(1.00317 -0.0012211 0)
(1.00466 -0.00133765 0)
(1.00625 -0.00141986 0)
(1.00792 -0.00146885 0)
(1.00963 -0.00149877 0)
(1.01136 -0.00151918 0)
(1.0131 -0.00153257 0)
(1.01486 -0.00154088 0)
(1.01663 -0.00154577 0)
(1.0184 -0.00154715 0)
(1.02017 -0.00154449 0)
(1.02193 -0.00153769 0)
(1.02368 -0.00152683 0)
(1.02542 -0.00151198 0)
(1.02713 -0.00149341 0)
(1.02882 -0.00147126 0)
(1.03047 -0.00144494 0)
(1.0321 -0.00141399 0)
(1.03367 -0.00137884 0)
(1.0352 -0.00134068 0)
(1.03667 -0.00130121 0)
(1.03809 -0.0012625 0)
(1.03945 -0.00122681 0)
(1.04075 -0.00119651 0)
(1.04199 -0.00117404 0)
(1.04318 -0.0011618 0)
(1.04433 -0.00116217 0)
(1.04542 -0.00117761 0)
(1.04648 -0.00121079 0)
(1.0475 -0.00126469 0)
(1.04849 -0.00134263 0)
(1.04943 -0.00144822 0)
(1.05034 -0.00158533 0)
(1.0512 -0.00175729 0)
(1.05201 -0.00196561 0)
(1.05276 -0.00220823 0)
(1.05343 -0.00247753 0)
(1.00012 -0.000362836 0)
(1.00068 -0.00099437 0)
(1.00186 -0.00137054 0)
(1.00329 -0.0015769 0)
(1.00479 -0.00172521 0)
(1.00639 -0.00182928 0)
(1.00807 -0.0018909 0)
(1.00978 -0.00192867 0)
(1.01152 -0.00195446 0)
(1.01327 -0.00197134 0)
(1.01503 -0.00198182 0)
(1.0168 -0.00198802 0)
(1.01857 -0.0019897 0)
(1.02034 -0.00198611 0)
(1.02211 -0.00197714 0)
(1.02386 -0.00196287 0)
(1.0256 -0.00194334 0)
(1.02731 -0.00191893 0)
(1.02901 -0.00188981 0)
(1.03067 -0.00185509 0)
(1.03229 -0.00181407 0)
(1.03387 -0.00176723 0)
(1.0354 -0.00171603 0)
(1.03687 -0.00166254 0)
(1.03829 -0.00160927 0)
(1.03965 -0.00155892 0)
(1.04095 -0.0015143 0)
(1.04219 -0.00147817 0)
(1.04338 -0.00145318 0)
(1.04452 -0.00144183 0)
(1.04561 -0.00144654 0)
(1.04666 -0.00146982 0)
(1.04768 -0.00151436 0)
(1.04865 -0.00158306 0)
(1.04959 -0.00167899 0)
(1.05049 -0.0018054 0)
(1.05134 -0.001965 0)
(1.05214 -0.00215867 0)
(1.05287 -0.00238399 0)
(1.05353 -0.00263368 0)
(1.00013 -0.000458422 0)
(1.00074 -0.00124143 0)
(1.00198 -0.00169238 0)
(1.00344 -0.00193794 0)
(1.00496 -0.00211688 0)
(1.00657 -0.00224155 0)
(1.00826 -0.00231481 0)
(1.00998 -0.00235994 0)
(1.01172 -0.00239085 0)
(1.01348 -0.00241099 0)
(1.01524 -0.00242355 0)
(1.01702 -0.00243108 0)
(1.01879 -0.00243308 0)
(1.02057 -0.00242857 0)
(1.02234 -0.00241743 0)
(1.02409 -0.00239974 0)
(1.02584 -0.0023755 0)
(1.02755 -0.00234524 0)
(1.02925 -0.00230917 0)
(1.03091 -0.00226604 0)
(1.03254 -0.00221488 0)
(1.03412 -0.00215623 0)
(1.03565 -0.0020918 0)
(1.03713 -0.00202408 0)
(1.03855 -0.00195602 0)
(1.0399 -0.00189078 0)
(1.0412 -0.00183159 0)
(1.04244 -0.00178157 0)
(1.04362 -0.00174361 0)
(1.04476 -0.00172031 0)
(1.04584 -0.00171405 0)
(1.04689 -0.00172717 0)
(1.04789 -0.0017621 0)
(1.04886 -0.00182129 0)
(1.04979 -0.00190728 0)
(1.05067 -0.00202278 0)
(1.05151 -0.00216991 0)
(1.0523 -0.00234901 0)
(1.05302 -0.00255744 0)
(1.05368 -0.00278823 0)
(1.00014 -0.000564677 0)
(1.00082 -0.00150533 0)
(1.00214 -0.00202457 0)
(1.00364 -0.00230541 0)
(1.00517 -0.0025136 0)
(1.0068 -0.00265728 0)
(1.0085 -0.00274101 0)
(1.01023 -0.00279294 0)
(1.01198 -0.00282861 0)
(1.01374 -0.00285176 0)
(1.01551 -0.0028663 0)
(1.01729 -0.00287518 0)
(1.01907 -0.00287752 0)
(1.02085 -0.0028721 0)
(1.02262 -0.00285878 0)
(1.02438 -0.00283762 0)
(1.02613 -0.00280861 0)
(1.02785 -0.00277246 0)
(1.02955 -0.00272946 0)
(1.03122 -0.00267788 0)
(1.03285 -0.00261645 0)
(1.03443 -0.00254581 0)
(1.03597 -0.00246792 0)
(1.03744 -0.00238569 0)
(1.03886 -0.00230255 0)
(1.04021 -0.00222211 0)
(1.0415 -0.00214804 0)
(1.04274 -0.00208384 0)
(1.04392 -0.00203263 0)
(1.04504 -0.00199712 0)
(1.04612 -0.00197964 0)
(1.04716 -0.00198234 0)
(1.04815 -0.00200739 0)
(1.0491 -0.0020568 0)
(1.05002 -0.00213259 0)
(1.05089 -0.00223695 0)
(1.05172 -0.00237151 0)
(1.05249 -0.00253614 0)
(1.0532 -0.00272803 0)
(1.05384 -0.00294052 0)
(1.00016 -0.000685326 0)
(1.00092 -0.0017902 0)
(1.00233 -0.00236894 0)
(1.00387 -0.00268059 0)
(1.00544 -0.00291631 0)
(1.00708 -0.00307707 0)
(1.0088 -0.00316995 0)
(1.01054 -0.00322805 0)
(1.01229 -0.00326808 0)
(1.01406 -0.00329391 0)
(1.01584 -0.00331031 0)
(1.01762 -0.00332057 0)
(1.01941 -0.00332324 0)
(1.02119 -0.00331688 0)
(1.02297 -0.00330132 0)
(1.02474 -0.00327662 0)
(1.02649 -0.00324271 0)
(1.02821 -0.00320058 0)
(1.02991 -0.00315061 0)
(1.03158 -0.0030905 0)
(1.03322 -0.00301864 0)
(1.0348 -0.00293575 0)
(1.03633 -0.00284407 0)
(1.03781 -0.00274696 0)
(1.03922 -0.00264836 0)
(1.04057 -0.00255234 0)
(1.04185 -0.00246302 0)
(1.04308 -0.0023843 0)
(1.04425 -0.00231952 0)
(1.04536 -0.0022715 0)
(1.04643 -0.0022425 0)
(1.04745 -0.00223452 0)
(1.04843 -0.00224941 0)
(1.04937 -0.00228879 0)
(1.05026 -0.00235411 0)
(1.05112 -0.00244713 0)
(1.05192 -0.00256901 0)
(1.05268 -0.00271924 0)
(1.05337 -0.00289489 0)
(1.05399 -0.00308962 0)
(1.00019 -0.000825314 0)
(1.00106 -0.00210068 0)
(1.00258 -0.00272725 0)
(1.00417 -0.00306479 0)
(1.00575 -0.00332603 0)
(1.00743 -0.00350152 0)
(1.00916 -0.0036021 0)
(1.01091 -0.00366568 0)
(1.01268 -0.00370957 0)
(1.01445 -0.0037377 0)
(1.01623 -0.00375579 0)
(1.01802 -0.00376743 0)
(1.01981 -0.00377039 0)
(1.0216 -0.00376298 0)
(1.02339 -0.00374506 0)
(1.02516 -0.00371665 0)
(1.02691 -0.00367759 0)
(1.02864 -0.00362931 0)
(1.03034 -0.0035723 0)
(1.03201 -0.00350349 0)
(1.03364 -0.00342093 0)
(1.03522 -0.00332544 0)
(1.03675 -0.00321955 0)
(1.03822 -0.00310711 0)
(1.03962 -0.00299257 0)
(1.04096 -0.0028805 0)
(1.04223 -0.0027755 0)
(1.04344 -0.00268184 0)
(1.04459 -0.00260313 0)
(1.04569 -0.00254227 0)
(1.04674 -0.00250145 0)
(1.04774 -0.00248249 0)
(1.0487 -0.00248698 0)
(1.04962 -0.00251606 0)
(1.05049 -0.00257065 0)
(1.05132 -0.00265213 0)
(1.0521 -0.00276123 0)
(1.05283 -0.00289712 0)
(1.0535 -0.00305678 0)
(1.0541 -0.0032342 0)
(1.00023 -0.000991277 0)
(1.00124 -0.00244205 0)
(1.00289 -0.00310116 0)
(1.00453 -0.00345935 0)
(1.00614 -0.0037437 0)
(1.00784 -0.00393128 0)
(1.00959 -0.004038 0)
(1.01136 -0.00410624 0)
(1.01313 -0.00415341 0)
(1.01492 -0.00418332 0)
(1.01671 -0.00420284 0)
(1.0185 -0.00421576 0)
(1.02029 -0.00421882 0)
(1.02209 -0.00421014 0)
(1.02387 -0.00418961 0)
(1.02564 -0.00415718 0)
(1.02739 -0.00411259 0)
(1.02912 -0.00405787 0)
(1.03081 -0.00399366 0)
(1.03248 -0.0039159 0)
(1.0341 -0.00382228 0)
(1.03568 -0.00371373 0)
(1.0372 -0.00359311 0)
(1.03865 -0.00346478 0)
(1.04004 -0.00333376 0)
(1.04136 -0.0032051 0)
(1.04261 -0.0030839 0)
(1.0438 -0.00297485 0)
(1.04493 -0.0028818 0)
(1.046 -0.00280775 0)
(1.04702 -0.0027548 0)
(1.048 -0.00272458 0)
(1.04893 -0.00271841 0)
(1.04981 -0.00273695 0)
(1.05066 -0.00278056 0)
(1.05146 -0.0028503 0)
(1.05221 -0.00294653 0)
(1.0529 -0.00306811 0)
(1.05354 -0.00321198 0)
(1.05411 -0.00337246 0)
(1.00028 -0.00119214 0)
(1.00147 -0.00282025 0)
(1.00327 -0.00349284 0)
(1.00496 -0.00386568 0)
(1.00661 -0.00417004 0)
(1.00834 -0.00436682 0)
(1.01011 -0.0044781 0)
(1.01189 -0.00455006 0)
(1.01368 -0.0045997 0)
(1.01547 -0.00463063 0)
(1.01726 -0.00465112 0)
(1.01905 -0.00466506 0)
(1.02085 -0.00466784 0)
(1.02264 -0.00465747 0)
(1.02442 -0.00463388 0)
(1.02618 -0.00459694 0)
(1.02792 -0.00454627 0)
(1.02964 -0.00448469 0)
(1.03132 -0.00441305 0)
(1.03297 -0.004326 0)
(1.03458 -0.00422088 0)
(1.03614 -0.00409875 0)
(1.03763 -0.00396278 0)
(1.03907 -0.00381793 0)
(1.04043 -0.0036698 0)
(1.04172 -0.00352394 0)
(1.04295 -0.00338599 0)
(1.0441 -0.00326107 0)
(1.0452 -0.00315325 0)
(1.04623 -0.00306566 0)
(1.04722 -0.00300025 0)
(1.04815 -0.00295849 0)
(1.04904 -0.00294142 0)
(1.04989 -0.00294919 0)
(1.05069 -0.00298157 0)
(1.05145 -0.00303937 0)
(1.05215 -0.0031226 0)
(1.05281 -0.00322984 0)
(1.0534 -0.00335807 0)