/*--------------------------------*- C++ -*----------------------------------*\
| =========                 |                                                 |
| \\      /  F ield         | OpenFOAM: The Open Source CFD Toolbox           |
|  \\    /   O peration     | Version:  2306                                  |
|   \\  /    A nd           | Website:  www.openfoam.com                      |
|    \\/     M anipulation  |                                                 |
\*---------------------------------------------------------------------------*/
FoamFile
{
    version     2.0;
    format      ascii;
    arch        "LSB;label=32;scalar=64";
    class       volVectorField;
    location    "1000";
    object      wallShearStress;
}
// * * * * * * * * * * * * * * * * * * * * * * * * * * * * * * * * * * * * * //

dimensions      [0 2 -2 0 0 0 0];

internalField   uniform (0 0 0);

boundaryField
{
    inlet
    {
        type            calculated;
        value           uniform (0 0 0);
    }
    outlet
    {
        type            calculated;
        value           uniform (0 0 0);
    }
    topWall
    {
        type            calculated;
        value           nonuniform List<vector> 
340
(
(-0.00782297 3.46003e-05 0)
(-0.00764805 6.4384e-05 0)
(-0.00743913 7.03617e-05 0)
(-0.00722491 7.27861e-05 0)
(-0.00701855 7.34342e-05 0)
(-0.00681854 7.27828e-05 0)
(-0.00662282 7.13445e-05 0)
(-0.00643156 6.9379e-05 0)
(-0.00624537 6.70528e-05 0)
(-0.00606446 6.44665e-05 0)
(-0.00588895 6.17118e-05 0)
(-0.0057192 5.84158e-05 0)
(-0.00555395 5.47157e-05 0)
(-0.00539324 5.12536e-05 0)
(-0.00523784 4.79714e-05 0)
(-0.00508886 4.44849e-05 0)
(-0.00494773 4.11046e-05 0)
(-0.0048135 3.82346e-05 0)
(-0.00468543 3.57289e-05 0)
(-0.00456411 3.31511e-05 0)
(-0.00445083 3.01373e-05 0)
(-0.0043475 2.6716e-05 0)
(-0.00425458 2.31707e-05 0)
(-0.00417204 1.9703e-05 0)
(-0.00409976 1.60955e-05 0)
(-0.00403774 1.24213e-05 0)
(-0.00398558 9.18717e-06 0)
(-0.00394222 6.5269e-06 0)
(-0.00390644 4.422e-06 0)
(-0.00387695 2.80667e-06 0)
(-0.00385258 1.60071e-06 0)
(-0.00383233 7.08975e-07 0)
(-0.0038153 9.55081e-08 0)
(-0.00380067 -2.78508e-07 0)
(-0.00378777 -5.85323e-07 0)
(-0.00377624 -8.41441e-07 0)
(-0.0037656 -9.14849e-07 0)
(-0.00375542 -8.43127e-07 0)
(-0.0037453 -6.55678e-07 0)
(-0.00373496 -3.86184e-07 0)
(-0.0037242 -7.23923e-08 0)
(-0.00371294 2.50152e-07 0)
(-0.00370117 5.53637e-07 0)
(-0.00368896 8.11339e-07 0)
(-0.00367645 1.01057e-06 0)
(-0.0036638 1.15637e-06 0)
(-0.00365113 1.26265e-06 0)
(-0.00363853 1.34394e-06 0)
(-0.00362603 1.41521e-06 0)
(-0.00361363 1.49379e-06 0)
(-0.00360126 1.59761e-06 0)
(-0.00358878 1.74373e-06 0)
(-0.00357601 1.9468e-06 0)
(-0.00356273 2.21824e-06 0)
(-0.00354868 2.56603e-06 0)
(-0.0035336 2.99486e-06 0)
(-0.0035172 3.50347e-06 0)
(-0.00349922 4.08666e-06 0)
(-0.0034794 4.74107e-06 0)
(-0.00345751 5.46144e-06 0)
(-0.00343333 6.23752e-06 0)
(-0.00340667 7.06072e-06 0)
(-0.00337738 7.91866e-06 0)
(-0.00334535 8.79592e-06 0)
(-0.0033105 9.68125e-06 0)
(-0.00327279 1.05637e-05 0)
(-0.00323223 1.14307e-05 0)
(-0.00318886 1.22745e-05 0)
(-0.00314275 1.30395e-05 0)
(-0.00309418 1.34886e-05 0)
(-0.00304381 1.36102e-05 0)
(-0.00299208 1.36741e-05 0)
(-0.00293914 1.37345e-05 0)
(-0.00288513 1.37936e-05 0)
(-0.00283019 1.38416e-05 0)
(-0.00277446 1.38675e-05 0)
(-0.0027181 1.38622e-05 0)
(-0.00266127 1.38171e-05 0)
(-0.00260419 1.37271e-05 0)
(-0.00254703 1.35991e-05 0)
(-0.00248997 1.34228e-05 0)
(-0.00243309 1.31382e-05 0)
(-0.00237628 1.28126e-05 0)
(-0.00231976 1.25305e-05 0)
(-0.00226381 1.22344e-05 0)
(-0.00220874 1.18892e-05 0)
(-0.00215483 1.14847e-05 0)
(-0.00210235 1.10269e-05 0)
(-0.0020515 1.05271e-05 0)
(-0.00200247 9.99649e-06 0)
(-0.00195538 9.44616e-06 0)
(-0.00191034 8.88667e-06 0)
(-0.00186739 8.32653e-06 0)
(-0.00182657 7.77255e-06 0)
(-0.00178789 7.2325e-06 0)
(-0.00175132 6.71397e-06 0)
(-0.0017168 6.22263e-06 0)
(-0.00168426 5.76313e-06 0)
(-0.00165361 5.34273e-06 0)
(-0.00162472 4.97338e-06 0)
(-0.00159746 4.76654e-06 0)
(-0.00157098 4.733e-06 0)
(-0.00154515 4.73567e-06 0)
(-0.00151998 4.7003e-06 0)
(-0.00149555 4.59946e-06 0)
(-0.00147203 4.42923e-06 0)
(-0.00144957 4.20017e-06 0)
(-0.0014283 3.92789e-06 0)
(-0.00140833 3.62931e-06 0)
(-0.00138967 3.33072e-06 0)
(-0.00137225 3.05671e-06 0)
(-0.00135596 2.81007e-06 0)
(-0.00134074 2.58068e-06 0)
(-0.00132654 2.36877e-06 0)
(-0.00131332 2.17852e-06 0)
(-0.00130099 2.00685e-06 0)
(-0.00128949 1.84919e-06 0)
(-0.00127879 1.70116e-06 0)
(-0.00126884 1.55907e-06 0)
(-0.00125962 1.42082e-06 0)
(-0.00125111 1.28429e-06 0)
(-0.00124331 1.1433e-06 0)
(-0.00123622 9.99893e-07 0)
(-0.00122984 8.64341e-07 0)
(-0.00122411 7.41011e-07 0)
(-0.001219 6.3103e-07 0)
(-0.00121445 5.33692e-07 0)
(-0.0012104 4.4694e-07 0)
(-0.00120684 3.68008e-07 0)
(-0.00120372 2.94121e-07 0)
(-0.00120103 2.24715e-07 0)
(-0.00119875 1.55152e-07 0)
(-0.00119687 8.33314e-08 0)
(-0.00119541 1.44693e-08 0)
(-0.00119433 -4.83026e-08 0)
(-0.00119362 -1.05939e-07 0)
(-0.00119324 -1.54367e-07 0)
(-0.00119316 -1.9585e-07 0)
(-0.00119333 -2.3471e-07 0)
(-0.00119371 -2.60839e-07 0)
(-0.00119431 -2.84307e-07 0)
(-0.00119511 -3.05601e-07 0)
(-0.0011961 -3.27906e-07 0)
(-0.0011973 -3.55633e-07 0)
(-0.00119872 -3.88493e-07 0)
(-0.00120036 -4.23583e-07 0)
(-0.00120221 -4.5455e-07 0)
(-0.00120429 -4.86606e-07 0)
(-0.00120657 -5.25647e-07 0)
(-0.00120905 -5.61878e-07 0)
(-0.00121171 -5.93267e-07 0)
(-0.00121455 -6.21929e-07 0)
(-0.00121756 -6.48014e-07 0)
(-0.00122073 -6.73535e-07 0)
(-0.00122405 -6.99787e-07 0)
(-0.00122753 -7.2562e-07 0)
(-0.00123115 -7.50022e-07 0)
(-0.00123492 -7.72981e-07 0)
(-0.00123881 -7.9441e-07 0)
(-0.00124284 -8.14032e-07 0)
(-0.00124698 -8.31676e-07 0)
(-0.00125122 -8.47189e-07 0)
(-0.00125557 -8.60353e-07 0)
(-0.00125999 -8.70982e-07 0)
(-0.00126449 -8.79074e-07 0)
(-0.00126905 -8.84771e-07 0)
(-0.00127366 -8.88968e-07 0)
(-0.00127831 -8.92503e-07 0)
(-0.001283 -8.95043e-07 0)
(-0.00128772 -8.96421e-07 0)
(-0.00129247 -8.97212e-07 0)
(-0.00129723 -8.98049e-07 0)
(-0.00130202 -8.99153e-07 0)
(-0.00130682 -9.00398e-07 0)
(-0.00131164 -9.01537e-07 0)
(-0.00131648 -9.02341e-07 0)
(-0.00132132 -9.02635e-07 0)
(-0.00132617 -9.02349e-07 0)
(-0.00133103 -9.01561e-07 0)
(-0.00133589 -9.00473e-07 0)
(-0.00134074 -8.99403e-07 0)
(-0.00134559 -8.98928e-07 0)
(-0.00135045 -8.99397e-07 0)
(-0.0013553 -9.00435e-07 0)
(-0.00136016 -9.01414e-07 0)
(-0.00136502 -9.0202e-07 0)
(-0.00136988 -9.02309e-07 0)
(-0.00137474 -9.02602e-07 0)
(-0.00137959 -9.03604e-07 0)
(-0.00138445 -9.05823e-07 0)
(-0.00138931 -9.08782e-07 0)
(-0.00139417 -9.11651e-07 0)
(-0.00139904 -9.14172e-07 0)
(-0.00140391 -9.16369e-07 0)
(-0.00140878 -9.18899e-07 0)
(-0.00141366 -9.22473e-07 0)
(-0.00141854 -9.2662e-07 0)
(-0.00142343 -9.3048e-07 0)
(-0.00142833 -9.33708e-07 0)
(-0.00143323 -9.36856e-07 0)
(-0.00143813 -9.40652e-07 0)
(-0.00144304 -9.44741e-07 0)
(-0.00144795 -9.48204e-07 0)
(-0.00145287 -9.51016e-07 0)
(-0.00145779 -9.54074e-07 0)
(-0.00146271 -9.57256e-07 0)
(-0.00146763 -9.61514e-07 0)
(-0.00147256 -9.67858e-07 0)
(-0.00147751 -9.74004e-07 0)
(-0.00148247 -9.77583e-07 0)
(-0.00148742 -9.78007e-07 0)
(-0.00149237 -9.75411e-07 0)
(-0.00149729 -9.69891e-07 0)
(-0.00150218 -9.61455e-07 0)
(-0.00150703 -9.50065e-07 0)
(-0.00151181 -9.35686e-07 0)
(-0.00151653 -9.1832e-07 0)
(-0.00152117 -8.98061e-07 0)
(-0.00152571 -8.75109e-07 0)
(-0.00153015 -8.49778e-07 0)
(-0.00153448 -8.22475e-07 0)
(-0.00153869 -7.93693e-07 0)
(-0.00154277 -7.63983e-07 0)
(-0.00154671 -7.33926e-07 0)
(-0.00155053 -7.04098e-07 0)
(-0.00155422 -6.7505e-07 0)
(-0.00155778 -6.47286e-07 0)
(-0.00156122 -6.21239e-07 0)
(-0.00156454 -5.97237e-07 0)
(-0.00156776 -5.75461e-07 0)
(-0.00157088 -5.5593e-07 0)
(-0.0015739 -5.3854e-07 0)
(-0.00157685 -5.23119e-07 0)
(-0.00157972 -5.09447e-07 0)
(-0.00158252 -4.97243e-07 0)
(-0.00158527 -4.86174e-07 0)
(-0.00158795 -4.75841e-07 0)
(-0.00159059 -4.65873e-07 0)
(-0.00159317 -4.55941e-07 0)
(-0.0015957 -4.45801e-07 0)
(-0.00159817 -4.35296e-07 0)
(-0.0016006 -4.24375e-07 0)
(-0.00160297 -4.13074e-07 0)
(-0.00160529 -4.01496e-07 0)
(-0.00160756 -3.89738e-07 0)
(-0.00160977 -3.77823e-07 0)
(-0.00161192 -3.65577e-07 0)
(-0.00161403 -3.52541e-07 0)
(-0.00161608 -3.37859e-07 0)
(-0.00161808 -3.20129e-07 0)
(-0.00162 -2.97116e-07 0)
(-0.00162185 -2.65193e-07 0)
(-0.00162359 -2.19939e-07 0)
(-0.00162519 -1.61504e-07 0)
(-0.0016266 -9.22628e-08 0)
(-0.00162774 9.18583e-09 0)
(-0.00162844 1.6913e-07 0)
(-0.00162845 3.81652e-07 0)
(-0.00162764 6.61587e-07 0)
(-0.00162588 9.37199e-07 0)
(-0.00162304 1.22841e-06 0)
(-0.00161891 1.60123e-06 0)
(-0.00161326 2.03842e-06 0)
(-0.00160582 2.52733e-06 0)
(-0.00159632 3.0652e-06 0)
(-0.00158449 3.64311e-06 0)
(-0.00157011 4.2457e-06 0)
(-0.00155303 4.85428e-06 0)
(-0.00153315 5.44908e-06 0)
(-0.00151046 6.00945e-06 0)
(-0.00148502 6.51433e-06 0)
(-0.00145699 6.9415e-06 0)
(-0.00142665 7.2661e-06 0)
(-0.00139435 7.47014e-06 0)
(-0.00136058 7.53953e-06 0)
(-0.00132591 7.46482e-06 0)
(-0.00129099 7.24515e-06 0)
(-0.0012565 6.88982e-06 0)
(-0.0012231 6.41681e-06 0)
(-0.0011914 5.8506e-06 0)
(-0.00116192 5.21737e-06 0)
(-0.00113506 4.54395e-06 0)
(-0.00111111 3.85664e-06 0)
(-0.0010902 3.18042e-06 0)
(-0.00107237 2.53745e-06 0)
(-0.00105753 1.94547e-06 0)
(-0.0010455 1.41753e-06 0)
(-0.00103602 9.63634e-07 0)
(-0.00102882 5.91353e-07 0)
(-0.00102359 2.92427e-07 0)
(-0.00101999 6.51323e-08 0)
(-0.00101771 -9.47e-08 0)
(-0.00101646 -1.93604e-07 0)
(-0.00101595 -2.47478e-07 0)
(-0.00101595 -2.72227e-07 0)
(-0.00101628 -2.75208e-07 0)
(-0.00101677 -2.38457e-07 0)
(-0.00101725 -1.6555e-07 0)
(-0.00101756 -5.97144e-08 0)
(-0.00101754 7.30729e-08 0)
(-0.00101709 2.18961e-07 0)
(-0.00101616 3.62607e-07 0)
(-0.00101474 4.98285e-07 0)
(-0.00101282 6.19908e-07 0)
(-0.00101043 7.27455e-07 0)
(-0.00100758 8.21976e-07 0)
(-0.00100431 9.03439e-07 0)
(-0.00100066 9.71663e-07 0)
(-0.000996669 1.02689e-06 0)
(-0.000992385 1.07012e-06 0)
(-0.00098785 1.10236e-06 0)
(-0.000983102 1.12487e-06 0)
(-0.000978178 1.13863e-06 0)
(-0.000973114 1.14433e-06 0)
(-0.000967946 1.14267e-06 0)
(-0.000962709 1.13442e-06 0)
(-0.000957435 1.1205e-06 0)
(-0.000952151 1.10183e-06 0)
(-0.000946884 1.07934e-06 0)
(-0.000941655 1.0539e-06 0)
(-0.000936482 1.02626e-06 0)
(-0.000931382 9.97036e-07 0)
(-0.000926365 9.66778e-07 0)
(-0.000921443 9.35934e-07 0)
(-0.000916625 9.04867e-07 0)
(-0.000911915 8.73879e-07 0)
(-0.000907319 8.4322e-07 0)
(-0.000902841 8.13099e-07 0)
(-0.000898482 7.83685e-07 0)
(-0.000894244 7.5505e-07 0)
(-0.000890128 7.27052e-07 0)
(-0.000886132 6.98697e-07 0)
(-0.00088227 6.68866e-07 0)
(-0.000878525 6.37855e-07 0)
(-0.000874965 6.19967e-07 0)
(-0.000871296 6.28649e-07 0)
(-0.000868055 6.70254e-07 0)
(-0.000863414 7.24101e-07 0)
(-0.000861973 4.11486e-07 0)
(-0.000855379 1.08446e-06 0)
)
;
    }
    bottomWall
    {
        type            calculated;
        value           nonuniform List<vector> 
300
(
(-1.2882e-05 4.99958e-06 0)
(-4.41635e-05 3.78412e-06 0)
(-6.55809e-05 6.93632e-07 0)
(-6.9028e-05 -1.39241e-06 0)
(-6.1013e-05 -1.82118e-06 0)
(-5.17367e-05 -9.31632e-07 0)
(-4.87298e-05 7.9546e-07 0)
(-5.53158e-05 2.27893e-06 0)
(-6.9326e-05 2.77703e-06 0)
(-8.48776e-05 2.61366e-06 0)
(-9.81043e-05 3.6785e-06 0)
(-0.00010841 6.33204e-06 0)
(-0.000112976 5.48935e-06 0)
(-0.000106277 3.32424e-06 0)
(-8.21584e-05 -3.04135e-07 0)
(-2.87163e-05 -5.40255e-06 0)
(5.99245e-05 -9.58428e-06 0)
(0.000163015 -1.15421e-05 0)
(0.000279169 -1.70459e-05 0)
(0.000410217 -2.47645e-05 0)
(0.000546976 -2.78085e-05 0)
(0.000676059 -2.74532e-05 0)
(0.000795755 -2.6839e-05 0)
(0.000905956 -2.6522e-05 0)
(0.00100742 -2.64462e-05 0)
(0.00109685 -2.37948e-05 0)
(0.00117392 -2.01424e-05 0)
(0.00124006 -1.73275e-05 0)
(0.00129706 -1.50246e-05 0)
(0.00134603 -1.31447e-05 0)
(0.00138782 -1.15317e-05 0)
(0.00142306 -1.0075e-05 0)
(0.00145235 -8.8217e-06 0)
(0.00147611 -7.78615e-06 0)
(0.00149444 -6.78966e-06 0)
(0.00150753 -5.80901e-06 0)
(0.00151576 -4.76422e-06 0)
(0.00151922 -3.73318e-06 0)
(0.00151813 -2.7744e-06 0)
(0.00151299 -1.99873e-06 0)
(0.00150416 -1.20594e-06 0)
(0.00149176 -4.2694e-07 0)
(0.001476 3.33071e-07 0)
(0.00145705 1.06599e-06 0)
(0.0014352 1.8028e-06 0)
(0.00141083 2.56247e-06 0)
(0.00138424 3.39495e-06 0)
(0.0013557 3.97033e-06 0)
(0.00132504 4.37554e-06 0)
(0.00129261 4.74731e-06 0)
(0.00125856 5.071e-06 0)
(0.00122309 5.35586e-06 0)
(0.00118637 5.60082e-06 0)
(0.00114856 5.80768e-06 0)
(0.00110983 5.97698e-06 0)
(0.00107034 6.10904e-06 0)
(0.00103022 6.20389e-06 0)
(0.000989626 6.2682e-06 0)
(0.000948709 6.34095e-06 0)
(0.00090762 6.53253e-06 0)
(0.000866331 6.8427e-06 0)
(0.000824824 7.02347e-06 0)
(0.000783405 7.04028e-06 0)
(0.000742141 7.05777e-06 0)
(0.000701102 7.0612e-06 0)
(0.00066036 7.05323e-06 0)
(0.000619982 7.03388e-06 0)
(0.000580038 7.00341e-06 0)
(0.000540594 6.96396e-06 0)
(0.000501708 6.9181e-06 0)
(0.000463426 6.86933e-06 0)
(0.000425787 6.82034e-06 0)
(0.000388826 6.77321e-06 0)
(0.000352578 6.73171e-06 0)
(0.000317078 6.70226e-06 0)
(0.00028235 6.69922e-06 0)
(0.000248407 6.75659e-06 0)
(0.000215247 6.94739e-06 0)
(0.000182619 7.24328e-06 0)
(0.000150201 7.28763e-06 0)
(0.00011964 6.73531e-06 0)
(8.97586e-05 6.6638e-06 0)
(6.05444e-05 7.00534e-06 0)
(3.26154e-05 6.64465e-06 0)
(4.96567e-06 6.2516e-06 0)
(-2.21326e-05 5.13233e-06 0)
(-4.77254e-05 4.2873e-06 0)
(-7.26013e-05 4.16724e-06 0)
(-9.67475e-05 4.14402e-06 0)
(-0.000120167 4.06668e-06 0)
(-0.000142842 3.94655e-06 0)
(-0.000164784 4.02037e-06 0)
(-0.00018613 4.04718e-06 0)
(-0.000206715 3.85157e-06 0)
(-0.000226574 3.62476e-06 0)
(-0.000245738 3.41108e-06 0)
(-0.000264229 3.21092e-06 0)
(-0.000282073 3.021e-06 0)
(-0.000299285 2.84039e-06 0)
(-0.000315887 2.66818e-06 0)
(-0.000331891 2.50439e-06 0)
(-0.000347318 2.34826e-06 0)
(-0.000362182 2.19981e-06 0)
(-0.000376501 2.05832e-06 0)
(-0.000390289 1.92386e-06 0)
(-0.000403564 1.79572e-06 0)
(-0.000416338 1.67396e-06 0)
(-0.00042863 1.55792e-06 0)
(-0.00044045 1.44766e-06 0)
(-0.000451816 1.34254e-06 0)
(-0.000462737 1.24261e-06 0)
(-0.000473229 1.14726e-06 0)
(-0.000483302 1.05661e-06 0)
(-0.00049297 9.70116e-07 0)
(-0.000502242 8.87959e-07 0)
(-0.000511132 8.09705e-07 0)
(-0.000519649 7.35479e-07 0)
(-0.000527807 6.66037e-07 0)
(-0.000535613 6.00625e-07 0)
(-0.000543084 5.38867e-07 0)
(-0.000550226 4.80937e-07 0)
(-0.000557057 4.26527e-07 0)
(-0.000563584 3.75833e-07 0)
(-0.000569824 3.28514e-07 0)
(-0.000575786 2.84749e-07 0)
(-0.000581486 2.44161e-07 0)
(-0.000586933 2.06847e-07 0)
(-0.000592142 1.72444e-07 0)
(-0.000597122 1.40979e-07 0)
(-0.000601888 1.11985e-07 0)
(-0.000606445 8.54439e-08 0)
(-0.000610808 6.08842e-08 0)
(-0.000614981 3.82716e-08 0)
(-0.000618977 1.71094e-08 0)
(-0.000622796 -2.61468e-09 0)
(-0.000626451 -2.1379e-08 0)
(-0.00062994 -3.90584e-08 0)
(-0.000633276 -5.60655e-08 0)
(-0.000636451 -7.2139e-08 0)
(-0.00063948 -8.77107e-08 0)
(-0.000642352 -1.02591e-07 0)
(-0.000645081 -1.17279e-07 0)
(-0.000647661 -1.31853e-07 0)
(-0.000650101 -1.46563e-07 0)
(-0.000652395 -1.61094e-07 0)
(-0.00065455 -1.75341e-07 0)
(-0.000656562 -1.89088e-07 0)
(-0.000658437 -2.02382e-07 0)
(-0.000660174 -2.15124e-07 0)
(-0.000661779 -2.27344e-07 0)
(-0.00066325 -2.38995e-07 0)
(-0.000664595 -2.50064e-07 0)
(-0.000665811 -2.6054e-07 0)
(-0.000666906 -2.70367e-07 0)
(-0.000667878 -2.79597e-07 0)
(-0.000668736 -2.88155e-07 0)
(-0.000669479 -2.96135e-07 0)
(-0.000670114 -3.03428e-07 0)
(-0.00067064 -3.10186e-07 0)
(-0.000671065 -3.16279e-07 0)
(-0.000671389 -3.21927e-07 0)
(-0.000671619 -3.27012e-07 0)
(-0.000671756 -3.32347e-07 0)
(-0.000671805 -3.37154e-07 0)
(-0.000671763 -3.42096e-07 0)
(-0.000671635 -3.46061e-07 0)
(-0.000671425 -3.48855e-07 0)
(-0.00067114 -3.51391e-07 0)
(-0.000670785 -3.53513e-07 0)
(-0.000670367 -3.54707e-07 0)
(-0.000669891 -3.55366e-07 0)
(-0.000669361 -3.5512e-07 0)
(-0.000668783 -3.54391e-07 0)
(-0.00066816 -3.5269e-07 0)
(-0.000667498 -3.5044e-07 0)
(-0.000666803 -3.47106e-07 0)
(-0.000666081 -3.42394e-07 0)
(-0.00066534 -3.35532e-07 0)
(-0.000664587 -3.27323e-07 0)
(-0.000663836 -3.1612e-07 0)
(-0.000663099 -3.01656e-07 0)
(-0.000662393 -2.82657e-07 0)
(-0.000661736 -2.59402e-07 0)
(-0.000661149 -2.30563e-07 0)
(-0.000660656 -1.95625e-07 0)
(-0.000660281 -1.56839e-07 0)
(-0.000660061 -1.15965e-07 0)
(-0.000660022 -6.86919e-08 0)
(-0.000660189 -1.67416e-08 0)
(-0.000660575 3.50801e-08 0)
(-0.00066118 7.4573e-08 0)
(-0.000661985 1.08394e-07 0)
(-0.000662966 1.42756e-07 0)
(-0.000664121 1.91574e-07 0)
(-0.00066552 2.72454e-07 0)
(-0.000667319 4.08435e-07 0)
(-0.000669799 6.13636e-07 0)
(-0.000673288 8.87273e-07 0)
(-0.000678095 1.20274e-06 0)
(-0.000684368 1.51474e-06 0)
(-0.000692027 1.76549e-06 0)
(-0.000700719 1.90718e-06 0)
(-0.00070989 1.91089e-06 0)
(-0.000718906 1.78413e-06 0)
(-0.000727229 1.55874e-06 0)
(-0.000734486 1.28596e-06 0)
(-0.000740554 1.01439e-06 0)
(-0.000745492 7.84908e-07 0)
(-0.000749526 6.17752e-07 0)
(-0.000752935 5.19219e-07 0)
(-0.000756029 4.7823e-07 0)
(-0.000759052 4.79927e-07 0)
(-0.000762205 5.01786e-07 0)
(-0.000765579 5.23787e-07 0)
(-0.000769198 5.20752e-07 0)
(-0.000772956 4.73273e-07 0)
(-0.000776722 3.75226e-07 0)
(-0.000780243 2.23597e-07 0)
(-0.00078321 -7.1745e-10 0)
(-0.000785186 -3.55319e-07 0)
(-0.000785651 -8.23666e-07 0)
(-0.000784058 -1.41348e-06 0)
(-0.000779967 -1.97127e-06 0)
(-0.000772936 -2.57455e-06 0)
(-0.000762537 -3.23844e-06 0)
(-0.000748405 -3.85514e-06 0)
(-0.00073043 -4.36544e-06 0)
(-0.000708668 -4.69068e-06 0)
(-0.000683661 -4.75205e-06 0)
(-0.000656284 -4.48613e-06 0)
(-0.000627464 -3.90108e-06 0)
(-0.000598016 -3.08813e-06 0)
(-0.000568963 -2.04484e-06 0)
(-0.000540788 -9.48845e-07 0)
(-0.000513081 -1.71037e-07 0)
(-0.000485053 5.62615e-08 0)
(-0.000456933 -2.75056e-07 0)
(-0.000430197 -1.04755e-06 0)
(-0.000407662 -1.8759e-06 0)
(-0.000392667 -2.30874e-06 0)
(-0.000387355 -2.13854e-06 0)
(-0.000392184 -1.18924e-06 0)
(-0.000406776 2.24623e-07 0)
(-0.000429924 2.03009e-06 0)
(-0.000459985 3.5237e-06 0)
(-0.000495147 4.77583e-06 0)
(-0.000533867 5.74811e-06 0)
(-0.000574639 6.38725e-06 0)
(-0.000616231 6.71589e-06 0)
(-0.000657576 6.773e-06 0)
(-0.000697793 6.60241e-06 0)
(-0.000736167 6.25046e-06 0)
(-0.000772165 5.76799e-06 0)
(-0.000805443 5.20506e-06 0)
(-0.000835828 4.60749e-06 0)
(-0.000863288 4.01158e-06 0)
(-0.000887898 3.44535e-06 0)
(-0.00090983 2.92934e-06 0)
(-0.000929326 2.47758e-06 0)
(-0.000946648 2.09083e-06 0)
(-0.000962021 1.76121e-06 0)
(-0.000975654 1.48129e-06 0)
(-0.000987749 1.24825e-06 0)
(-0.000998515 1.05821e-06 0)
(-0.00100814 9.05978e-07 0)
(-0.00101679 7.82874e-07 0)
(-0.00102457 6.81477e-07 0)
(-0.0010316 5.96618e-07 0)
(-0.00103794 5.25569e-07 0)
(-0.0010437 4.65021e-07 0)
(-0.00104893 4.12662e-07 0)
(-0.00105368 3.66102e-07 0)
(-0.00105801 3.23889e-07 0)
(-0.00106194 2.83825e-07 0)
(-0.00106549 2.44544e-07 0)
(-0.00106868 2.05582e-07 0)
(-0.00107155 1.70619e-07 0)
(-0.00107416 1.43284e-07 0)
(-0.00107656 1.22589e-07 0)
(-0.00107876 1.01842e-07 0)
(-0.00108072 7.66655e-08 0)
(-0.00108243 4.74853e-08 0)
(-0.00108388 1.74092e-08 0)
(-0.00108507 -1.1634e-08 0)
(-0.00108604 -3.86147e-08 0)
(-0.0010868 -6.40426e-08 0)
(-0.00108736 -8.87275e-08 0)
(-0.00108774 -1.12851e-07 0)
(-0.00108792 -1.38026e-07 0)
(-0.00108789 -1.718e-07 0)
(-0.00108768 -1.99548e-07 0)
(-0.00108732 -2.20034e-07 0)
(-0.00108684 -2.32707e-07 0)
(-0.00108626 -2.40399e-07 0)
(-0.0010856 -2.43708e-07 0)
(-0.00108489 -2.41321e-07 0)
(-0.00108409 -2.31824e-07 0)
(-0.00108343 -2.04312e-07 0)
(-0.00108248 -2.2169e-07 0)
(-0.00108206 -2.08989e-09 0)
)
;
    }
    stepWall
    {
        type            calculated;
        value           nonuniform List<vector> 
40
(
(-5.7496e-06 -8.33841e-06 0)
(-1.30788e-05 -1.57957e-06 0)
(-1.70011e-05 3.79099e-06 0)
(-1.88245e-05 9.35781e-06 0)
(-1.88625e-05 1.54664e-05 0)
(-1.84451e-05 2.16248e-05 0)
(-1.76053e-05 2.75144e-05 0)
(-1.63678e-05 3.30386e-05 0)
(-1.47797e-05 3.80758e-05 0)
(-1.28782e-05 4.25626e-05 0)
(-1.07289e-05 4.63338e-05 0)
(-8.41116e-06 4.9351e-05 0)
(-5.98792e-06 5.15976e-05 0)
(-3.52562e-06 5.30563e-05 0)
(-1.09413e-06 5.37022e-05 0)
(1.2221e-06 5.3543e-05 0)
(3.45584e-06 5.27082e-05 0)
(5.66171e-06 5.13171e-05 0)
(7.88548e-06 4.93502e-05 0)
(1.01396e-05 4.67981e-05 0)
(1.24492e-05 4.36709e-05 0)
(1.48489e-05 3.99741e-05 0)
(1.73871e-05 3.5726e-05 0)
(2.02804e-05 3.09343e-05 0)
(2.42755e-05 2.56169e-05 0)
(2.70621e-05 2.0321e-05 0)
(2.91741e-05 1.46992e-05 0)
(3.13085e-05 8.47623e-06 0)
(3.34227e-05 1.69932e-06 0)
(3.45227e-05 -5.39946e-06 0)
(3.72082e-05 -1.21897e-05 0)
(3.92001e-05 -1.95862e-05 0)
(3.77326e-05 -2.88283e-05 0)
(3.63088e-05 -3.87211e-05 0)
(3.55434e-05 -4.8433e-05 0)
(3.36677e-05 -5.82838e-05 0)
(3.00866e-05 -6.90276e-05 0)
(2.24531e-05 -8.71468e-05 0)
(-9.08402e-06 -0.000153523 0)
(-0.000284532 -0.000723939 0)
)
;
    }
    stepTop
    {
        type            calculated;
        value           nonuniform List<vector> 
40
(
(-0.00782297 -3.46003e-05 0)
(-0.00764805 -6.43839e-05 0)
(-0.00743913 -7.03616e-05 0)
(-0.00722491 -7.27859e-05 0)
(-0.00701855 -7.34339e-05 0)
(-0.00681855 -7.27824e-05 0)
(-0.00662283 -7.13439e-05 0)
(-0.00643157 -6.9378e-05 0)
(-0.00624538 -6.70515e-05 0)
(-0.00606448 -6.44646e-05 0)
(-0.00588897 -6.1709e-05 0)
(-0.00571924 -5.84119e-05 0)
(-0.00555401 -5.47102e-05 0)
(-0.00539332 -5.12458e-05 0)
(-0.00523795 -4.79607e-05 0)
(-0.00508902 -4.44697e-05 0)
(-0.00494795 -4.10834e-05 0)
(-0.00481381 -3.82052e-05 0)
(-0.00468586 -3.56877e-05 0)
(-0.00456469 -3.30946e-05 0)
(-0.00445162 -3.00614e-05 0)
(-0.00434858 -2.66148e-05 0)
(-0.00425603 -2.30384e-05 0)
(-0.00417397 -1.95265e-05 0)
(-0.00410232 -1.58835e-05 0)
(-0.00404107 -1.21783e-05 0)
(-0.00398985 -8.87176e-06 0)
(-0.00394771 -6.11348e-06 0)
(-0.0039135 -3.87575e-06 0)
(-0.00388603 -2.14801e-06 0)
(-0.00386427 -7.45357e-07 0)
(-0.00384738 4.01611e-07 0)
(-0.00383467 1.36873e-06 0)
(-0.00382571 2.35013e-06 0)
(-0.00382041 3.34042e-06 0)
(-0.00381884 4.31946e-06 0)
(-0.00382053 5.09635e-06 0)
(-0.00382535 7.10455e-06 0)
(-0.00384064 6.8181e-06 0)
(-0.00383857 1.92652e-05 0)
)
;
    }
    frontAndBack
    {
        type            empty;
    }
}


// ************************************************************************* //
