# Solver information
# Time        	U_solver      	Ux_initial    	Ux_final      	Ux_iters      	Uy_initial    	Uy_final      	Uy_iters      	U_converged   	k_solver      	k_initial     	k_final       	k_iters       	k_converged   	p_solver      	p_initial     	p_final       	p_iters       	p_converged   	omega_solver  	omega_initial 	omega_final   	omega_iters   	omega_converged
1             	smoothSolver	1.000000e+00	2.039060e-02	2	8.889990e-03	1.260280e-04	2	false	smoothSolver	1.000000e+00	5.365510e-02	1	true	GAMG	1.000000e+00	9.897890e-03	34	true	smoothSolver	3.271040e-02	1.337570e-03	1	true
2             	smoothSolver	8.090060e-01	5.246850e-02	2	2.463210e-01	1.705490e-02	2	false	smoothSolver	6.457200e-01	3.155270e-02	1	true	GAMG	3.998700e-03	3.508890e-05	28	true	smoothSolver	1.874280e-02	9.092460e-04	1	true
3             	smoothSolver	7.004360e-01	4.492000e-02	2	1.762340e-01	1.345590e-02	2	false	smoothSolver	4.535440e-01	1.524920e-02	1	true	GAMG	4.808080e-03	4.718270e-05	26	true	smoothSolver	6.594660e-02	2.129940e-03	1	true
4             	smoothSolver	5.527840e-01	3.449610e-02	2	1.195480e-01	9.039080e-03	2	false	smoothSolver	1.364740e-01	4.825090e-03	1	true	GAMG	7.220150e-03	5.148360e-05	30	true	smoothSolver	4.213360e-02	9.230120e-04	1	true
5             	smoothSolver	3.344320e-01	2.046080e-02	2	7.765380e-02	5.466020e-03	2	false	smoothSolver	6.622650e-02	2.171150e-03	1	true	GAMG	1.139850e-02	9.305720e-05	30	true	smoothSolver	2.769390e-02	5.641100e-04	1	true
6             	smoothSolver	8.211090e-02	4.585020e-03	2	4.750890e-02	2.863050e-03	2	false	smoothSolver	6.074620e-02	1.926360e-03	1	true	GAMG	4.864070e-02	4.586010e-04	28	true	smoothSolver	2.509190e-02	4.996880e-04	1	true
7             	smoothSolver	1.849570e-01	1.133230e-02	2	3.698110e-02	1.827780e-03	2	false	smoothSolver	7.894780e-02	2.399600e-03	1	true	GAMG	1.761450e-02	1.229910e-04	28	true	smoothSolver	1.975280e-02	5.759900e-04	1	true
8             	smoothSolver	3.422000e-01	2.138150e-02	2	3.981140e-02	2.054980e-03	2	false	smoothSolver	6.668780e-02	3.109750e-03	1	true	GAMG	9.025500e-03	9.010230e-05	14	true	smoothSolver	1.754020e-02	5.969680e-04	1	true
9             	smoothSolver	3.991480e-01	2.504460e-02	2	4.260250e-02	2.381730e-03	2	false	smoothSolver	7.034170e-02	3.815830e-03	1	true	GAMG	8.952270e-03	7.534610e-05	21	true	smoothSolver	1.494130e-02	5.546880e-04	1	true
10            	smoothSolver	3.432100e-01	2.151720e-02	2	3.757940e-02	2.173550e-03	2	false	smoothSolver	7.327530e-02	4.187610e-03	1	true	GAMG	1.194200e-02	1.164590e-04	21	true	smoothSolver	1.182210e-02	4.879190e-04	1	true
11            	smoothSolver	1.917190e-01	1.199630e-02	2	3.191980e-02	1.787400e-03	2	false	smoothSolver	7.374270e-02	4.475480e-03	1	true	GAMG	2.285950e-02	2.184400e-04	20	true	smoothSolver	9.255080e-03	4.228210e-04	1	true
12            	smoothSolver	4.289460e-02	2.360780e-03	2	3.462780e-02	1.920020e-03	2	false	smoothSolver	9.059720e-02	4.604320e-03	1	true	GAMG	1.043420e-01	9.063120e-04	18	true	smoothSolver	9.118840e-03	3.711510e-04	1	true
13            	smoothSolver	1.358500e-01	8.242750e-03	2	3.789360e-02	2.114310e-03	2	false	smoothSolver	9.943240e-02	4.500660e-03	1	true	GAMG	2.176190e-02	1.674330e-04	17	true	smoothSolver	9.035420e-03	3.485820e-04	1	true
14            	smoothSolver	1.584370e-01	9.706140e-03	2	3.803910e-02	2.148390e-03	2	false	smoothSolver	7.939580e-02	4.028980e-03	1	true	GAMG	1.947870e-02	1.791790e-04	14	true	smoothSolver	7.618420e-03	3.108950e-04	1	true
15            	smoothSolver	1.363280e-01	8.368940e-03	2	3.564530e-02	2.043460e-03	2	false	smoothSolver	5.858430e-02	3.495570e-03	1	true	GAMG	2.128260e-02	1.666440e-04	18	true	smoothSolver	5.425150e-03	2.490110e-04	1	true
16            	smoothSolver	8.916810e-02	5.460980e-03	2	3.277670e-02	1.899750e-03	2	false	smoothSolver	5.116050e-02	3.273700e-03	1	true	GAMG	3.240280e-02	2.556900e-04	20	true	smoothSolver	5.391380e-03	2.370280e-04	1	true
17            	smoothSolver	3.683220e-02	2.150820e-03	2	2.927760e-02	1.745650e-03	2	false	smoothSolver	4.778570e-02	3.273570e-03	1	true	GAMG	7.943230e-02	5.660650e-04	20	true	smoothSolver	5.913260e-03	2.480410e-04	1	true
18            	smoothSolver	3.013900e-02	1.709480e-03	2	2.780420e-02	1.599400e-03	2	false	smoothSolver	5.013570e-02	3.438740e-03	1	true	GAMG	9.103400e-02	8.045890e-04	18	true	smoothSolver	6.029820e-03	2.643970e-04	1	true
19            	smoothSolver	5.428910e-02	3.240720e-03	2	2.652300e-02	1.505530e-03	2	false	smoothSolver	5.361570e-02	3.605170e-03	1	true	GAMG	4.197120e-02	3.070340e-04	12	true	smoothSolver	5.756180e-03	2.689540e-04	1	true
20            	smoothSolver	5.883950e-02	3.574400e-03	2	2.540350e-02	1.459360e-03	2	false	smoothSolver	5.453670e-02	3.697160e-03	1	true	GAMG	3.709310e-02	3.471270e-04	11	true	smoothSolver	5.222870e-03	2.626790e-04	1	true
21            	smoothSolver	4.855190e-02	2.958020e-03	2	2.417310e-02	1.397670e-03	2	false	smoothSolver	5.292180e-02	3.705290e-03	1	true	GAMG	4.541840e-02	2.696130e-04	12	true	smoothSolver	4.605390e-03	2.504180e-04	1	true
22            	smoothSolver	2.974450e-02	1.805510e-03	2	2.330640e-02	1.336990e-03	2	false	smoothSolver	4.929670e-02	3.628530e-03	1	true	GAMG	7.485880e-02	7.250500e-04	14	true	smoothSolver	4.036010e-03	2.355510e-04	1	true
23            	smoothSolver	1.221160e-02	6.976900e-04	2	2.267380e-02	1.305870e-03	2	false	smoothSolver	4.518660e-02	3.502320e-03	1	true	GAMG	2.194280e-01	1.882130e-03	10	true	smoothSolver	3.946910e-03	2.249040e-04	1	true
24            	smoothSolver	1.816560e-02	1.070880e-03	2	2.185130e-02	1.263760e-03	2	false	smoothSolver	4.338730e-02	3.349080e-03	1	true	GAMG	1.059790e-01	9.407060e-04	9	true	smoothSolver	3.716450e-03	2.139710e-04	1	true
25            	smoothSolver	2.302590e-02	1.386850e-03	2	2.110150e-02	1.219970e-03	2	false	smoothSolver	4.122260e-02	3.194890e-03	1	true	GAMG	7.506870e-02	5.327460e-04	8	true	smoothSolver	3.346960e-03	2.022810e-04	1	true
26            	smoothSolver	2.198890e-02	1.336000e-03	2	2.007440e-02	1.180460e-03	2	false	smoothSolver	3.908980e-02	3.061310e-03	1	true	GAMG	7.358310e-02	5.652410e-04	10	true	smoothSolver	3.002570e-03	1.923150e-04	1	true
27            	smoothSolver	1.731020e-02	1.055840e-03	2	1.912400e-02	1.140130e-03	2	false	smoothSolver	3.733320e-02	2.947060e-03	1	true	GAMG	8.923190e-02	8.132150e-04	10	true	smoothSolver	2.823900e-03	1.863550e-04	1	true
28            	smoothSolver	1.137040e-02	6.961240e-04	2	1.834460e-02	1.100950e-03	2	false	smoothSolver	3.587450e-02	2.859540e-03	1	true	GAMG	1.328300e-01	1.169080e-03	10	true	smoothSolver	2.862890e-03	1.849550e-04	1	true
29            	smoothSolver	8.579590e-03	5.191040e-04	2	1.764310e-02	1.057190e-03	2	false	smoothSolver	3.463470e-02	2.780850e-03	1	true	GAMG	2.253200e-01	1.703270e-03	10	true	smoothSolver	2.866420e-03	1.839740e-04	1	true
30            	smoothSolver	1.076570e-02	6.655030e-04	2	1.711710e-02	1.022870e-03	2	false	smoothSolver	3.395830e-02	2.708940e-03	1	true	GAMG	1.308710e-01	1.128660e-03	8	true	smoothSolver	2.834740e-03	1.830910e-04	1	true
31            	smoothSolver	1.172330e-02	7.293630e-04	2	1.675810e-02	1.000840e-03	2	false	smoothSolver	3.311450e-02	2.641070e-03	1	true	GAMG	1.112010e-01	6.228050e-04	9	true	smoothSolver	2.760910e-03	1.809840e-04	1	true
32            	smoothSolver	1.099740e-02	6.890030e-04	2	1.656660e-02	9.890350e-04	2	false	smoothSolver	3.194360e-02	2.563600e-03	1	true	GAMG	1.150490e-01	9.789890e-04	9	true	smoothSolver	2.656400e-03	1.776680e-04	1	true
33            	smoothSolver	9.331430e-03	5.884240e-04	2	1.643830e-02	9.793620e-04	2	false	smoothSolver	3.075740e-02	2.487120e-03	1	true	GAMG	1.362010e-01	9.803520e-04	11	true	smoothSolver	2.601120e-03	1.757190e-04	1	true
34            	smoothSolver	7.811550e-03	4.874460e-04	2	1.621740e-02	9.681340e-04	2	false	smoothSolver	2.973710e-02	2.413630e-03	1	true	GAMG	1.784310e-01	1.472110e-03	8	true	smoothSolver	2.576470e-03	1.738710e-04	1	true
35            	smoothSolver	7.110250e-03	4.396700e-04	2	1.591810e-02	9.551150e-04	2	false	smoothSolver	2.879380e-02	2.334850e-03	1	true	GAMG	1.655680e-01	1.504510e-03	10	true	smoothSolver	2.524680e-03	1.709760e-04	1	true
36            	smoothSolver	7.372680e-03	4.535000e-04	2	1.569920e-02	9.449030e-04	2	false	smoothSolver	2.792700e-02	2.263460e-03	1	true	GAMG	1.393790e-01	9.897120e-04	9	true	smoothSolver	2.467140e-03	1.689540e-04	1	true
37            	smoothSolver	7.415920e-03	4.546710e-04	2	1.559690e-02	9.426650e-04	2	false	smoothSolver	2.710420e-02	2.196040e-03	1	true	GAMG	1.320100e-01	1.151660e-03	8	true	smoothSolver	2.415000e-03	1.671620e-04	1	true
38            	smoothSolver	7.088530e-03	4.337210e-04	2	1.555220e-02	9.427390e-04	2	false	smoothSolver	2.631940e-02	2.132590e-03	1	true	GAMG	1.327740e-01	7.837440e-04	10	true	smoothSolver	2.363110e-03	1.650200e-04	1	true
39            	smoothSolver	6.591600e-03	4.030660e-04	2	1.547430e-02	9.383420e-04	2	false	smoothSolver	2.559850e-02	2.076390e-03	1	true	GAMG	1.420090e-01	8.275540e-04	10	true	smoothSolver	2.327380e-03	1.632880e-04	1	true
40            	smoothSolver	6.438140e-03	3.953540e-04	2	1.531940e-02	9.312400e-04	2	false	smoothSolver	2.494360e-02	2.023980e-03	1	true	GAMG	1.545840e-01	1.344700e-03	9	true	smoothSolver	2.308680e-03	1.630000e-04	1	true
41            	smoothSolver	6.434500e-03	3.959190e-04	2	1.508430e-02	9.235930e-04	2	false	smoothSolver	2.430800e-02	1.974970e-03	1	true	GAMG	1.659760e-01	1.309600e-03	8	true	smoothSolver	2.293550e-03	1.623200e-04	1	true
42            	smoothSolver	6.444310e-03	3.963460e-04	2	1.493060e-02	9.164960e-04	2	false	smoothSolver	2.369700e-02	1.927230e-03	1	true	GAMG	1.746240e-01	1.168850e-03	8	true	smoothSolver	2.271690e-03	1.610690e-04	1	true
43            	smoothSolver	6.365080e-03	3.919790e-04	2	1.487630e-02	9.138510e-04	2	false	smoothSolver	2.315280e-02	1.881560e-03	1	true	GAMG	1.732720e-01	1.503460e-03	8	true	smoothSolver	2.267340e-03	1.604290e-04	1	true
44            	smoothSolver	6.246600e-03	3.844310e-04	2	1.481680e-02	9.129750e-04	2	false	smoothSolver	2.266210e-02	1.839820e-03	1	true	GAMG	1.672170e-01	1.644620e-03	8	true	smoothSolver	2.261220e-03	1.599740e-04	1	true
45            	smoothSolver	6.105810e-03	3.751390e-04	2	1.474630e-02	9.116770e-04	2	false	smoothSolver	2.218330e-02	1.798440e-03	1	true	GAMG	1.600930e-01	9.320870e-04	9	true	smoothSolver	2.249310e-03	1.592150e-04	1	true
46            	smoothSolver	5.983080e-03	3.655310e-04	2	1.468030e-02	9.075300e-04	2	false	smoothSolver	2.167640e-02	1.756660e-03	1	true	GAMG	1.518580e-01	1.453960e-03	8	true	smoothSolver	2.245620e-03	1.584690e-04	1	true
47            	smoothSolver	5.891820e-03	3.582960e-04	2	1.458940e-02	9.023580e-04	2	false	smoothSolver	2.122710e-02	1.719240e-03	1	true	GAMG	1.443780e-01	1.425260e-03	8	true	smoothSolver	2.233400e-03	1.584030e-04	1	true
48            	smoothSolver	5.823970e-03	3.528280e-04	2	1.445610e-02	8.976840e-04	2	false	smoothSolver	2.076730e-02	1.683350e-03	1	true	GAMG	1.389670e-01	1.152840e-03	8	true	smoothSolver	2.220420e-03	1.577400e-04	1	true
49            	smoothSolver	5.764100e-03	3.483140e-04	2	1.435500e-02	8.966700e-04	2	false	smoothSolver	2.032430e-02	1.648580e-03	1	true	GAMG	1.361150e-01	9.242180e-04	8	true	smoothSolver	2.210640e-03	1.569730e-04	1	true
50            	smoothSolver	5.724520e-03	3.444730e-04	2	1.429170e-02	8.946770e-04	2	false	smoothSolver	1.993270e-02	1.616090e-03	1	true	GAMG	1.335980e-01	8.240530e-04	8	true	smoothSolver	2.215010e-03	1.572070e-04	1	true
51            	smoothSolver	5.688530e-03	3.413640e-04	2	1.423550e-02	8.911470e-04	2	false	smoothSolver	1.958030e-02	1.586140e-03	1	true	GAMG	1.327650e-01	8.087950e-04	8	true	smoothSolver	2.213830e-03	1.573550e-04	1	true
52            	smoothSolver	5.657410e-03	3.387940e-04	2	1.414950e-02	8.873850e-04	2	false	smoothSolver	1.922570e-02	1.557840e-03	1	true	GAMG	1.327300e-01	7.971450e-04	8	true	smoothSolver	2.212340e-03	1.571650e-04	1	true
53            	smoothSolver	5.631360e-03	3.365100e-04	2	1.407430e-02	8.850890e-04	2	false	smoothSolver	1.887390e-02	1.529940e-03	1	true	GAMG	1.325230e-01	7.826420e-04	8	true	smoothSolver	2.211050e-03	1.571860e-04	1	true
54            	smoothSolver	5.607470e-03	3.345000e-04	2	1.404440e-02	8.817000e-04	2	false	smoothSolver	1.856240e-02	1.502480e-03	1	true	GAMG	1.323220e-01	8.238040e-04	8	true	smoothSolver	2.214740e-03	1.575350e-04	1	true
55            	smoothSolver	5.588070e-03	3.325880e-04	2	1.400780e-02	8.781970e-04	2	false	smoothSolver	1.827830e-02	1.478820e-03	1	true	GAMG	1.309950e-01	9.627830e-04	8	true	smoothSolver	2.225100e-03	1.580760e-04	1	true
56            	smoothSolver	5.574450e-03	3.309160e-04	2	1.396570e-02	8.761280e-04	2	false	smoothSolver	1.798930e-02	1.456660e-03	1	true	GAMG	1.307320e-01	1.165960e-03	7	true	smoothSolver	2.230570e-03	1.587520e-04	1	true
57            	smoothSolver	5.556270e-03	3.289740e-04	2	1.394050e-02	8.743430e-04	2	false	smoothSolver	1.769290e-02	1.433030e-03	1	true	GAMG	1.306150e-01	1.063940e-03	7	true	smoothSolver	2.242260e-03	1.589370e-04	1	true
58            	smoothSolver	5.543470e-03	3.268720e-04	2	1.393280e-02	8.724840e-04	2	false	smoothSolver	1.742770e-02	1.409770e-03	1	true	GAMG	1.308880e-01	1.066520e-03	7	true	smoothSolver	2.255750e-03	1.592400e-04	1	true
59            	smoothSolver	5.531370e-03	3.250440e-04	2	1.392280e-02	8.695300e-04	2	false	smoothSolver	1.721620e-02	1.390630e-03	1	true	GAMG	1.310170e-01	1.092680e-03	7	true	smoothSolver	2.268110e-03	1.597440e-04	1	true
60            	smoothSolver	5.524040e-03	3.235200e-04	2	1.391640e-02	8.676530e-04	2	false	smoothSolver	1.698570e-02	1.373860e-03	1	true	GAMG	1.330590e-01	1.103890e-03	7	true	smoothSolver	2.279650e-03	1.607060e-04	1	true
61            	smoothSolver	5.524590e-03	3.220700e-04	2	1.393080e-02	8.666550e-04	2	false	smoothSolver	1.675090e-02	1.355180e-03	1	true	GAMG	1.343350e-01	1.098880e-03	7	true	smoothSolver	2.296790e-03	1.612640e-04	1	true
62            	smoothSolver	5.528750e-03	3.210430e-04	2	1.400810e-02	8.667060e-04	2	false	smoothSolver	1.653700e-02	1.338220e-03	1	true	GAMG	1.356970e-01	1.069460e-03	7	true	smoothSolver	2.307470e-03	1.617610e-04	1	true
63            	smoothSolver	5.547540e-03	3.205360e-04	2	1.406710e-02	8.658050e-04	2	false	smoothSolver	1.637550e-02	1.323570e-03	1	true	GAMG	1.365220e-01	1.042220e-03	7	true	smoothSolver	2.322120e-03	1.622830e-04	1	true
64            	smoothSolver	5.568770e-03	3.203630e-04	2	1.410750e-02	8.655050e-04	2	false	smoothSolver	1.624440e-02	1.312290e-03	1	true	GAMG	1.389420e-01	1.017010e-03	7	true	smoothSolver	2.354330e-03	1.630680e-04	1	true
65            	smoothSolver	5.598450e-03	3.207740e-04	2	1.418110e-02	8.670480e-04	2	false	smoothSolver	1.610100e-02	1.299310e-03	1	true	GAMG	1.410390e-01	1.008890e-03	7	true	smoothSolver	2.374660e-03	1.636480e-04	1	true
66            	smoothSolver	5.635320e-03	3.213640e-04	2	1.425410e-02	8.686100e-04	2	false	smoothSolver	1.599330e-02	1.288080e-03	1	true	GAMG	1.425100e-01	1.035160e-03	7	true	smoothSolver	2.399250e-03	1.646270e-04	1	true
67            	smoothSolver	5.677060e-03	3.224310e-04	2	1.435170e-02	8.704720e-04	2	false	smoothSolver	1.586390e-02	1.279100e-03	1	true	GAMG	1.455750e-01	1.146850e-03	7	true	smoothSolver	2.420130e-03	1.655810e-04	1	true
68            	smoothSolver	5.731480e-03	3.237620e-04	2	1.442130e-02	8.733160e-04	2	false	smoothSolver	1.581170e-02	1.271310e-03	1	true	GAMG	1.473460e-01	1.309550e-03	7	true	smoothSolver	2.441750e-03	1.658030e-04	1	true
69            	smoothSolver	5.781550e-03	3.253220e-04	2	1.455840e-02	8.766660e-04	2	false	smoothSolver	1.570990e-02	1.263160e-03	1	true	GAMG	1.487660e-01	1.380730e-03	7	true	smoothSolver	2.479170e-03	1.666920e-04	1	true
70            	smoothSolver	5.843980e-03	3.271960e-04	2	1.474900e-02	8.810040e-04	2	false	smoothSolver	1.562780e-02	1.256460e-03	1	true	GAMG	1.501910e-01	1.401900e-03	7	true	smoothSolver	2.490030e-03	1.676700e-04	1	true
71            	smoothSolver	5.918560e-03	3.294680e-04	2	1.485820e-02	8.866570e-04	2	false	smoothSolver	1.559760e-02	1.252230e-03	1	true	GAMG	1.524360e-01	1.398040e-03	7	true	smoothSolver	2.533390e-03	1.688890e-04	1	true
72            	smoothSolver	5.995960e-03	3.323230e-04	2	1.501480e-02	8.923790e-04	2	false	smoothSolver	1.554320e-02	1.245670e-03	1	true	GAMG	1.551160e-01	1.385980e-03	7	true	smoothSolver	2.575710e-03	1.697080e-04	1	true
73            	smoothSolver	6.073530e-03	3.347480e-04	2	1.521580e-02	8.972780e-04	2	false	smoothSolver	1.550030e-02	1.241180e-03	1	true	GAMG	1.561010e-01	1.353640e-03	7	true	smoothSolver	2.576200e-03	1.711830e-04	1	true
74            	smoothSolver	6.160990e-03	3.373090e-04	2	1.540710e-02	9.041100e-04	2	false	smoothSolver	1.549720e-02	1.241180e-03	1	true	GAMG	1.593080e-01	1.302360e-03	7	true	smoothSolver	2.647540e-03	1.724630e-04	1	true
75            	smoothSolver	6.238880e-03	3.404110e-04	2	1.555090e-02	9.110980e-04	2	false	smoothSolver	1.546500e-02	1.235220e-03	1	true	GAMG	1.615460e-01	1.216550e-03	7	true	smoothSolver	2.654630e-03	1.734820e-04	1	true
76            	smoothSolver	6.322540e-03	3.436150e-04	2	1.574730e-02	9.176410e-04	2	false	smoothSolver	1.544610e-02	1.232350e-03	1	true	GAMG	1.633170e-01	1.073020e-03	7	true	smoothSolver	2.699500e-03	1.750850e-04	1	true
77            	smoothSolver	6.416820e-03	3.467670e-04	2	1.594920e-02	9.249820e-04	2	false	smoothSolver	1.546570e-02	1.233360e-03	1	true	GAMG	1.656800e-01	8.817530e-04	7	true	smoothSolver	2.756800e-03	1.770420e-04	1	true
78            	smoothSolver	6.520450e-03	3.498780e-04	2	1.610160e-02	9.342810e-04	2	false	smoothSolver	1.544960e-02	1.229950e-03	1	true	GAMG	1.670100e-01	8.101790e-04	7	true	smoothSolver	2.758080e-03	1.780990e-04	1	true
79            	smoothSolver	6.586670e-03	3.529910e-04	2	1.632010e-02	9.419500e-04	2	false	smoothSolver	1.548080e-02	1.229060e-03	1	true	GAMG	1.695240e-01	8.651320e-04	7	true	smoothSolver	2.835190e-03	1.798760e-04	1	true
80            	smoothSolver	6.692240e-03	3.562220e-04	2	1.657040e-02	9.499900e-04	2	false	smoothSolver	1.550540e-02	1.229990e-03	1	true	GAMG	1.716740e-01	9.741820e-04	7	true	smoothSolver	2.852380e-03	1.823980e-04	1	true
81            	smoothSolver	6.782550e-03	3.592820e-04	2	1.674180e-02	9.604920e-04	2	false	smoothSolver	1.555710e-02	1.229120e-03	1	true	GAMG	1.722430e-01	1.036590e-03	7	true	smoothSolver	2.896640e-03	1.837040e-04	1	true
82            	smoothSolver	6.865370e-03	3.624800e-04	2	1.695880e-02	9.691600e-04	2	false	smoothSolver	1.555450e-02	1.231940e-03	1	true	GAMG	1.738350e-01	1.098700e-03	7	true	smoothSolver	2.944680e-03	1.862700e-04	1	true
83            	smoothSolver	6.943840e-03	3.658180e-04	2	1.725120e-02	9.798740e-04	2	false	smoothSolver	1.560080e-02	1.233670e-03	1	true	GAMG	1.741060e-01	1.212430e-03	7	true	smoothSolver	2.961990e-03	1.886630e-04	1	true
84            	smoothSolver	7.039080e-03	3.692920e-04	2	1.744250e-02	9.925750e-04	2	false	smoothSolver	1.566150e-02	1.229870e-03	1	true	GAMG	1.741090e-01	1.316470e-03	7	true	smoothSolver	3.047320e-03	1.906300e-04	1	true
85            	smoothSolver	7.111750e-03	3.720570e-04	2	1.768770e-02	1.002830e-03	2	false	smoothSolver	1.569610e-02	1.236050e-03	1	true	GAMG	1.749270e-01	1.450010e-03	7	true	smoothSolver	3.053170e-03	1.927220e-04	1	true
86            	smoothSolver	7.200130e-03	3.753710e-04	2	1.796710e-02	1.015410e-03	2	false	smoothSolver	1.577840e-02	1.241650e-03	1	true	GAMG	1.766640e-01	1.507290e-03	7	true	smoothSolver	3.110100e-03	1.956980e-04	1	true
87            	smoothSolver	7.292540e-03	3.790600e-04	2	1.816870e-02	1.028300e-03	2	false	smoothSolver	1.581360e-02	1.235600e-03	1	true	GAMG	1.772690e-01	1.429020e-03	7	true	smoothSolver	3.152340e-03	1.975510e-04	1	true
88            	smoothSolver	7.383400e-03	3.821610e-04	2	1.844020e-02	1.038160e-03	2	false	smoothSolver	1.588940e-02	1.243640e-03	1	true	GAMG	1.799700e-01	1.370900e-03	7	true	smoothSolver	3.172400e-03	1.999100e-04	1	true
89            	smoothSolver	7.462460e-03	3.859310e-04	2	1.871750e-02	1.052440e-03	2	false	smoothSolver	1.599590e-02	1.251130e-03	1	true	GAMG	1.827240e-01	1.311280e-03	7	true	smoothSolver	3.256700e-03	2.036230e-04	1	true
90            	smoothSolver	7.568340e-03	3.900910e-04	2	1.893780e-02	1.066030e-03	2	false	smoothSolver	1.603190e-02	1.246610e-03	1	true	GAMG	1.816430e-01	1.295150e-03	7	true	smoothSolver	3.251170e-03	2.054190e-04	1	true
91            	smoothSolver	7.655340e-03	3.934490e-04	2	1.927290e-02	1.077300e-03	2	false	smoothSolver	1.614360e-02	1.254500e-03	1	true	GAMG	1.847310e-01	1.312160e-03	7	true	smoothSolver	3.312820e-03	2.080090e-04	1	true
92            	smoothSolver	7.737530e-03	3.975360e-04	2	1.955520e-02	1.094450e-03	2	false	smoothSolver	1.626930e-02	1.265920e-03	1	true	GAMG	1.843940e-01	1.352680e-03	7	true	smoothSolver	3.365680e-03	2.114040e-04	1	true
93            	smoothSolver	7.839820e-03	4.015680e-04	2	1.980460e-02	1.108270e-03	2	false	smoothSolver	1.629220e-02	1.266060e-03	1	true	GAMG	1.824800e-01	1.409800e-03	7	true	smoothSolver	3.386190e-03	2.137860e-04	1	true
94            	smoothSolver	7.914490e-03	4.052580e-04	2	2.017840e-02	1.119410e-03	2	false	smoothSolver	1.643110e-02	1.269700e-03	1	true	GAMG	1.836480e-01	1.465030e-03	7	true	smoothSolver	3.456600e-03	2.169380e-04	1	true
95            	smoothSolver	8.011820e-03	4.102370e-04	2	2.040970e-02	1.138010e-03	2	false	smoothSolver	1.661480e-02	1.278500e-03	1	true	GAMG	1.819220e-01	1.489730e-03	7	true	smoothSolver	3.466050e-03	2.193130e-04	1	true
96            	smoothSolver	8.118720e-03	4.144640e-04	2	2.071750e-02	1.151420e-03	2	false	smoothSolver	1.659750e-02	1.286800e-03	1	true	GAMG	1.835010e-01	1.450170e-03	7	true	smoothSolver	3.512230e-03	2.216410e-04	1	true
97            	smoothSolver	8.215920e-03	4.189310e-04	2	2.104940e-02	1.163530e-03	2	false	smoothSolver	1.672330e-02	1.290780e-03	1	true	GAMG	1.868840e-01	1.416930e-03	7	true	smoothSolver	3.552260e-03	2.242820e-04	1	true
98            	smoothSolver	8.319510e-03	4.241530e-04	2	2.126810e-02	1.183820e-03	2	false	smoothSolver	1.696390e-02	1.301750e-03	1	true	GAMG	1.841430e-01	1.315920e-03	7	true	smoothSolver	3.587970e-03	2.266660e-04	1	true
99            	smoothSolver	8.422130e-03	4.286540e-04	2	2.159800e-02	1.194770e-03	2	false	smoothSolver	1.697300e-02	1.309100e-03	1	true	GAMG	1.865280e-01	1.328530e-03	7	true	smoothSolver	3.651460e-03	2.294830e-04	1	true
100           	smoothSolver	8.513580e-03	4.338290e-04	2	2.191280e-02	1.210730e-03	2	false	smoothSolver	1.709430e-02	1.308950e-03	1	true	GAMG	1.873980e-01	1.397780e-03	7	true	smoothSolver	3.665510e-03	2.318350e-04	1	true
101           	smoothSolver	8.620180e-03	4.394790e-04	2	2.214590e-02	1.231370e-03	2	false	smoothSolver	1.729650e-02	1.324180e-03	1	true	GAMG	1.853050e-01	1.528340e-03	7	true	smoothSolver	3.711270e-03	2.346340e-04	1	true
102           	smoothSolver	8.719670e-03	4.440050e-04	2	2.250790e-02	1.240520e-03	2	false	smoothSolver	1.732210e-02	1.333390e-03	1	true	GAMG	1.899390e-01	1.721260e-03	7	true	smoothSolver	3.739320e-03	2.369670e-04	1	true
103           	smoothSolver	8.807120e-03	4.494830e-04	2	2.276890e-02	1.260490e-03	2	false	smoothSolver	1.743620e-02	1.334980e-03	1	true	GAMG	1.891650e-01	1.802490e-03	7	true	smoothSolver	3.772740e-03	2.384210e-04	1	true
104           	smoothSolver	8.894210e-03	4.538880e-04	2	2.303290e-02	1.278980e-03	2	false	smoothSolver	1.763520e-02	1.347260e-03	1	true	GAMG	1.880960e-01	1.363080e-03	8	true	smoothSolver	3.862670e-03	2.424670e-04	1	true
105           	smoothSolver	8.986250e-03	4.582410e-04	2	2.335400e-02	1.287840e-03	2	false	smoothSolver	1.774200e-02	1.353460e-03	1	true	GAMG	1.938260e-01	9.784630e-04	8	true	smoothSolver	3.866800e-03	2.447450e-04	1	true
106           	smoothSolver	9.053810e-03	4.629370e-04	2	2.357480e-02	1.310920e-03	2	false	smoothSolver	1.774690e-02	1.359680e-03	1	true	GAMG	1.943210e-01	7.759110e-04	8	true	smoothSolver	3.889450e-03	2.461680e-04	1	true
107           	smoothSolver	9.130900e-03	4.673680e-04	2	2.387450e-02	1.325340e-03	2	false	smoothSolver	1.784600e-02	1.366790e-03	1	true	GAMG	1.965980e-01	7.722710e-04	8	true	smoothSolver	3.931550e-03	2.490950e-04	1	true
108           	smoothSolver	9.208640e-03	4.713740e-04	2	2.413920e-02	1.336620e-03	2	false	smoothSolver	1.795140e-02	1.371150e-03	1	true	GAMG	1.989620e-01	7.836830e-04	8	true	smoothSolver	3.953140e-03	2.508070e-04	1	true
109           	smoothSolver	9.277640e-03	4.746800e-04	2	2.435230e-02	1.359670e-03	2	false	smoothSolver	1.805340e-02	1.378080e-03	1	true	GAMG	1.970310e-01	7.881870e-04	8	true	smoothSolver	4.025470e-03	2.533980e-04	1	true
110           	smoothSolver	9.338980e-03	4.786100e-04	2	2.464050e-02	1.370280e-03	2	false	smoothSolver	1.809710e-02	1.388030e-03	1	true	GAMG	2.006420e-01	7.610210e-04	8	true	smoothSolver	4.014430e-03	2.550740e-04	1	true
111           	smoothSolver	9.389110e-03	4.812820e-04	2	2.488330e-02	1.386290e-03	2	false	smoothSolver	1.819530e-02	1.389680e-03	1	true	GAMG	2.034130e-01	7.356770e-04	8	true	smoothSolver	4.036530e-03	2.566480e-04	1	true
112           	smoothSolver	9.433560e-03	4.829060e-04	2	2.513580e-02	1.407540e-03	2	false	smoothSolver	1.823170e-02	1.399510e-03	1	true	GAMG	2.039980e-01	7.755960e-04	8	true	smoothSolver	4.081830e-03	2.596030e-04	1	true
113           	smoothSolver	9.468790e-03	4.860860e-04	2	2.532630e-02	1.415480e-03	2	false	smoothSolver	1.830820e-02	1.405900e-03	1	true	GAMG	2.064520e-01	8.517140e-04	8	true	smoothSolver	4.080530e-03	2.604820e-04	1	true
114           	smoothSolver	9.485090e-03	4.873070e-04	2	2.554250e-02	1.432340e-03	2	false	smoothSolver	1.826710e-02	1.404100e-03	1	true	GAMG	2.067670e-01	1.945690e-03	7	true	smoothSolver	4.112710e-03	2.616290e-04	1	true
115           	smoothSolver	9.503600e-03	4.876960e-04	2	2.570030e-02	1.448680e-03	2	false	smoothSolver	1.834430e-02	1.409610e-03	1	true	GAMG	2.081450e-01	1.715940e-03	7	true	smoothSolver	4.099440e-03	2.639790e-04	1	true
116           	smoothSolver	9.499220e-03	4.890410e-04	2	2.580730e-02	1.456150e-03	2	false	smoothSolver	1.838660e-02	1.416670e-03	1	true	GAMG	2.104900e-01	1.414640e-03	7	true	smoothSolver	4.112490e-03	2.648850e-04	1	true
117           	smoothSolver	9.501510e-03	4.886180e-04	2	2.601520e-02	1.471580e-03	2	false	smoothSolver	1.837300e-02	1.421010e-03	1	true	GAMG	2.089440e-01	1.218370e-03	7	true	smoothSolver	4.156650e-03	2.661900e-04	1	true
118           	smoothSolver	9.494130e-03	4.888580e-04	2	2.607760e-02	1.482180e-03	2	false	smoothSolver	1.833190e-02	1.425750e-03	1	true	GAMG	2.111560e-01	1.199460e-03	7	true	smoothSolver	4.129060e-03	2.670560e-04	1	true
119           	smoothSolver	9.451800e-03	4.880110e-04	2	2.614930e-02	1.487580e-03	2	false	smoothSolver	1.836140e-02	1.422860e-03	1	true	GAMG	2.148040e-01	1.280790e-03	7	true	smoothSolver	4.131590e-03	2.674040e-04	1	true
120           	smoothSolver	9.409090e-03	4.854800e-04	2	2.624400e-02	1.499880e-03	2	false	smoothSolver	1.829780e-02	1.426280e-03	1	true	GAMG	2.141350e-01	1.393670e-03	7	true	smoothSolver	4.144450e-03	2.690360e-04	1	true
121           	smoothSolver	9.360910e-03	4.841120e-04	2	2.622860e-02	1.507070e-03	2	false	smoothSolver	1.826920e-02	1.431310e-03	1	true	GAMG	2.127650e-01	1.444760e-03	7	true	smoothSolver	4.117320e-03	2.688790e-04	1	true
122           	smoothSolver	9.305130e-03	4.815700e-04	2	2.633360e-02	1.506950e-03	2	false	smoothSolver	1.820430e-02	1.426200e-03	1	true	GAMG	2.142800e-01	1.443720e-03	7	true	smoothSolver	4.122390e-03	2.685300e-04	1	true
123           	smoothSolver	9.242700e-03	4.783760e-04	2	2.630080e-02	1.515030e-03	2	false	smoothSolver	1.813670e-02	1.424010e-03	1	true	GAMG	2.149720e-01	1.464690e-03	7	true	smoothSolver	4.091250e-03	2.681500e-04	1	true
124           	smoothSolver	9.154450e-03	4.755690e-04	2	2.622360e-02	1.518920e-03	2	false	smoothSolver	1.805890e-02	1.433220e-03	1	true	GAMG	2.164210e-01	1.475930e-03	7	true	smoothSolver	4.069490e-03	2.684600e-04	1	true
125           	smoothSolver	9.073230e-03	4.705300e-04	2	2.626010e-02	1.517070e-03	2	false	smoothSolver	1.790360e-02	1.423010e-03	1	true	GAMG	2.167480e-01	2.160360e-03	6	true	smoothSolver	4.075570e-03	2.683690e-04	1	true
126           	smoothSolver	8.990670e-03	4.677160e-04	2	2.614610e-02	1.519100e-03	2	false	smoothSolver	1.780130e-02	1.420840e-03	1	true	GAMG	2.158300e-01	2.116410e-03	6	true	smoothSolver	4.023930e-03	2.678840e-04	1	true
127           	smoothSolver	8.894220e-03	4.641310e-04	2	2.606930e-02	1.517080e-03	2	false	smoothSolver	1.779270e-02	1.422070e-03	1	true	GAMG	2.160060e-01	2.118100e-03	6	true	smoothSolver	4.002440e-03	2.666940e-04	1	true
128           	smoothSolver	8.786940e-03	4.580390e-04	2	2.599520e-02	1.510450e-03	2	false	smoothSolver	1.756080e-02	1.415100e-03	1	true	GAMG	2.175370e-01	2.170330e-03	6	true	smoothSolver	3.984720e-03	2.661380e-04	1	true
129           	smoothSolver	8.685850e-03	4.546780e-04	2	2.586930e-02	1.510990e-03	2	false	smoothSolver	1.739650e-02	1.411000e-03	1	true	GAMG	2.179970e-01	1.395230e-03	7	true	smoothSolver	3.937480e-03	2.663210e-04	1	true
130           	smoothSolver	8.586920e-03	4.503150e-04	2	2.573500e-02	1.507700e-03	2	false	smoothSolver	1.732130e-02	1.409740e-03	1	true	GAMG	2.160620e-01	1.344270e-03	7	true	smoothSolver	3.909430e-03	2.652440e-04	1	true
131           	smoothSolver	8.487160e-03	4.452220e-04	2	2.554800e-02	1.493630e-03	2	false	smoothSolver	1.716890e-02	1.402380e-03	1	true	GAMG	2.184880e-01	1.250350e-03	7	true	smoothSolver	3.887280e-03	2.641850e-04	1	true
132           	smoothSolver	8.380460e-03	4.413030e-04	2	2.533900e-02	1.487200e-03	2	false	smoothSolver	1.697830e-02	1.397130e-03	1	true	GAMG	2.174840e-01	2.145280e-03	6	true	smoothSolver	3.833150e-03	2.633280e-04	1	true
133           	smoothSolver	8.247190e-03	4.351630e-04	2	2.521760e-02	1.483690e-03	2	false	smoothSolver	1.688360e-02	1.391420e-03	1	true	GAMG	2.152130e-01	2.075710e-03	6	true	smoothSolver	3.824610e-03	2.624070e-04	1	true
134           	smoothSolver	8.149440e-03	4.302430e-04	2	2.503030e-02	1.469590e-03	2	false	smoothSolver	1.665390e-02	1.380290e-03	1	true	GAMG	2.169540e-01	2.054670e-03	6	true	smoothSolver	3.781930e-03	2.605400e-04	1	true