/*--------------------------------*- C++ -*----------------------------------*\
| =========                 |                                                 |
| \\      /  F ield         | OpenFOAM: The Open Source CFD Toolbox           |
|  \\    /   O peration     | Version:  2306                                  |
|   \\  /    A nd           | Website:  www.openfoam.com                      |
|    \\/     M anipulation  |                                                 |
\*---------------------------------------------------------------------------*/
FoamFile
{
    version     2.0;
    format      ascii;
    arch        "LSB;label=32;scalar=64";
    class       volScalarField;
    location    "1500";
    object      k;
}
// * * * * * * * * * * * * * * * * * * * * * * * * * * * * * * * * * * * * * //

dimensions      [0 2 -2 0 0 0 0];

internalField   nonuniform List<scalar> 
25600
(
0.00541281
0.00844037
0.0107735
0.012308
0.0131509
0.0134798
0.0134616
0.0132257
0.0128626
0.0124315
0.0119688
0.0114968
0.0110314
0.0105787
0.0101411
0.00972113
0.00932321
0.00895198
0.00860598
0.00828247
0.00798133
0.00770406
0.00745302
0.00722971
0.00703458
0.00686759
0.00672816
0.00661477
0.006525
0.00645593
0.00640451
0.00636789
0.00634361
0.0063297
0.00632499
0.00632866
0.00634106
0.00636026
0.00639846
0.00641624
0.00376626
0.00380934
0.00385489
0.00389299
0.00391174
0.00390551
0.00387696
0.00383404
0.00378682
0.00374529
0.00371828
0.00371502
0.00373969
0.0037981
0.00389789
0.00404677
0.00426323
0.00452887
0.00481686
0.00512263
0.00543919
0.00573885
0.00601854
0.00628058
0.00652777
0.00676208
0.00698524
0.00719771
0.00740013
0.00759262
0.00777504
0.0079472
0.00810895
0.00826021
0.00840081
0.00853076
0.0086495
0.00875496
0.00885597
0.0089031
0.00372504
0.00366277
0.00358563
0.00349437
0.00339186
0.00328206
0.00316877
0.00305532
0.0029446
0.00283949
0.00274276
0.00265643
0.00258262
0.00252358
0.00248171
0.00245862
0.00245668
0.00247643
0.00251679
0.00257682
0.00265534
0.00275081
0.00286188
0.00298832
0.00313075
0.00329055
0.00347418
0.00366222
0.00384878
0.00403269
0.00421406
0.0043932
0.00457013
0.00474458
0.00491603
0.00508371
0.00524693
0.00540235
0.00555093
0.00567141
0.00372401
0.00367096
0.00361354
0.00355013
0.0034806
0.00340569
0.00332658
0.00324455
0.00316092
0.0030765
0.00299187
0.00290879
0.0028284
0.00275162
0.00267926
0.00261203
0.0025506
0.00249589
0.00244828
0.00240823
0.00237617
0.0023525
0.00233751
0.00233144
0.00233507
0.00234889
0.00237275
0.0024056
0.00244648
0.00249505
0.00255136
0.00261632
0.00268799
0.00276392
0.0028434
0.00292642
0.00301319
0.00310273
0.00319421
0.00327974
0.00372382
0.00367222
0.00362071
0.00356797
0.00351321
0.0034561
0.00339667
0.00333519
0.00327212
0.00320788
0.00314283
0.00307745
0.00301226
0.00294775
0.00288437
0.00282254
0.00276261
0.00270457
0.00264915
0.00259668
0.00254742
0.0025016
0.00245944
0.00242115
0.00238692
0.00235683
0.00233096
0.00230926
0.00229168
0.00227817
0.00226878
0.00226371
0.00226312
0.00226695
0.00227525
0.00228769
0.00230368
0.00232264
0.00234404
0.00236656
0.00372355
0.0036719
0.00362147
0.00357168
0.00352202
0.00347205
0.00342142
0.00336998
0.00331773
0.00326477
0.00321123
0.00315729
0.00310315
0.00304904
0.00299519
0.00294183
0.00288919
0.0028374
0.00278667
0.0027372
0.00268918
0.00264277
0.00259812
0.00255535
0.00251459
0.00247595
0.00243949
0.00240524
0.0023732
0.00234334
0.00231566
0.00229016
0.00226689
0.0022459
0.00222723
0.00221087
0.00219668
0.00218449
0.00217409
0.00216529
0.00372344
0.00367152
0.00362107
0.00357185
0.00352363
0.00347614
0.0034291
0.00338225
0.00333542
0.00328852
0.00324152
0.00319443
0.00314729
0.00310017
0.00305316
0.00300637
0.00295992
0.00291389
0.00286841
0.00282357
0.00277948
0.00273626
0.00269399
0.00265276
0.00261266
0.00257376
0.00253612
0.00249981
0.00246485
0.00243125
0.00239902
0.00236816
0.00233868
0.00231058
0.00228389
0.00225861
0.00223472
0.00221218
0.00219092
0.0021709
0.00372337
0.00367132
0.00362071
0.00357146
0.00352348
0.00347665
0.0034308
0.00338574
0.0033413
0.00329735
0.00325379
0.00321053
0.00316753
0.00312478
0.00308227
0.00304002
0.00299806
0.00295643
0.00291519
0.00287437
0.00283405
0.00279426
0.00275508
0.00271655
0.00267872
0.00264165
0.00260539
0.00256996
0.00253542
0.00250179
0.00246908
0.00243731
0.00240649
0.00237663
0.00234774
0.00231982
0.00229289
0.00226694
0.00224195
0.00221794
0.00372333
0.00367117
0.00362044
0.0035711
0.00352309
0.00347635
0.00343078
0.00338627
0.0033427
0.00329997
0.00325797
0.00321662
0.00317583
0.00313555
0.00309572
0.00305632
0.00301732
0.00297872
0.00294052
0.00290273
0.00286536
0.00282844
0.00279198
0.00275602
0.00272057
0.00268566
0.00265133
0.00261759
0.00258448
0.00255201
0.00252021
0.00248909
0.00245866
0.00242894
0.00239993
0.00237165
0.00234411
0.00231731
0.00229127
0.00226599
0.0037233
0.00367107
0.00362026
0.00357083
0.00352275
0.00347596
0.0034304
0.003386
0.00334268
0.00330036
0.00325896
0.00321842
0.00317865
0.00313959
0.00310119
0.00306339
0.00302614
0.00298942
0.00295319
0.00291744
0.00288215
0.00284732
0.00281294
0.00277901
0.00274554
0.00271254
0.00268001
0.00264796
0.00261642
0.00258538
0.00255487
0.00252489
0.00249545
0.00246656
0.00243824
0.00241049
0.00238332
0.00235674
0.00233076
0.00230539
0.00372328
0.003671
0.00362012
0.00357064
0.00352249
0.00347564
0.00343004
0.00338562
0.00334233
0.0033001
0.00325889
0.00321863
0.00317926
0.00314074
0.003103
0.00306599
0.00302966
0.00299397
0.00295889
0.00292437
0.00289039
0.00285694
0.00282397
0.00279149
0.00275947
0.00272792
0.00269682
0.00266617
0.00263598
0.00260624
0.00257696
0.00254813
0.00251978
0.00249189
0.00246448
0.00243755
0.0024111
0.00238515
0.00235969
0.00233474
0.00372326
0.00367095
0.00362003
0.00357049
0.0035223
0.00347541
0.00342976
0.0033853
0.00334198
0.00329975
0.00325856
0.00321838
0.00317914
0.00314081
0.00310333
0.00306666
0.00303076
0.00299559
0.0029611
0.00292725
0.00289402
0.00286137
0.00282928
0.00279772
0.00276666
0.0027361
0.00270601
0.00267638
0.00264721
0.00261848
0.0025902
0.00256235
0.00253494
0.00250796
0.00248141
0.0024553
0.00242962
0.00240438
0.00237958
0.00235521
0.00372325
0.00367091
0.00361996
0.00357039
0.00352216
0.00347523
0.00342955
0.00338505
0.0033417
0.00329945
0.00325825
0.00321807
0.00317886
0.00314058
0.00310319
0.00306665
0.00303092
0.00299597
0.00296175
0.00292824
0.00289539
0.00286318
0.00283157
0.00280054
0.00277006
0.00274011
0.00271067
0.00268172
0.00265324
0.00262523
0.00259766
0.00257054
0.00254385
0.00251759
0.00249175
0.00246633
0.00244132
0.00241671
0.00239252
0.00236872
0.00372325
0.00367088
0.0036199
0.00357031
0.00352207
0.00347511
0.0034294
0.00338489
0.00334151
0.00329924
0.00325802
0.00321783
0.00317861
0.00314034
0.00310297
0.00306648
0.00303081
0.00299595
0.00296184
0.00292848
0.00289581
0.00286381
0.00283245
0.0028017
0.00277153
0.00274193
0.00271287
0.00268433
0.00265628
0.00262873
0.00260164
0.00257501
0.00254882
0.00252307
0.00249775
0.00247284
0.00244834
0.00242424
0.00240053
0.0023772
0.00372324
0.00367086
0.00361987
0.00357027
0.003522
0.00347504
0.00342932
0.00338479
0.0033414
0.00329912
0.0032579
0.00321769
0.00317847
0.0031402
0.00310284
0.00306635
0.00303071
0.00299587
0.00296181
0.0029285
0.00289591
0.00286401
0.00283276
0.00280215
0.00277215
0.00274273
0.00271387
0.00268556
0.00265776
0.00263048
0.00260368
0.00257735
0.00255149
0.00252607
0.00250109
0.00247653
0.00245238
0.00242864
0.00240529
0.00238231
0.00372324
0.00367085
0.00361985
0.00357024
0.00352198
0.00347501
0.00342929
0.00338476
0.00334137
0.00329909
0.00325787
0.00321767
0.00317845
0.00314018
0.00310282
0.00306633
0.0030307
0.00299587
0.00296184
0.00292855
0.00289599
0.00286413
0.00283293
0.00280239
0.00277246
0.00274313
0.00271437
0.00268618
0.00265851
0.00263137
0.00260474
0.00257859
0.00255291
0.00252769
0.00250292
0.00247858
0.00245466
0.00243115
0.00240804
0.0023853
0.00372324
0.00367085
0.00361985
0.00357024
0.00352198
0.00347501
0.0034293
0.00338478
0.0033414
0.00329913
0.00325792
0.00321772
0.00317851
0.00314025
0.0031029
0.00306642
0.0030308
0.00299598
0.00296195
0.00292868
0.00289613
0.00286429
0.00283311
0.00280259
0.0027727
0.00274341
0.0027147
0.00268656
0.00265897
0.0026319
0.00260535
0.00257929
0.00255372
0.00252861
0.00250396
0.00247974
0.00245596
0.00243259
0.00240962
0.00238703
0.00372324
0.00367085
0.00361985
0.00357025
0.00352199
0.00347504
0.00342934
0.00338483
0.00334147
0.00329921
0.00325801
0.00321783
0.00317864
0.00314038
0.00310304
0.00306658
0.00303096
0.00299615
0.00296213
0.00292886
0.00289632
0.00286449
0.00283333
0.00280282
0.00277294
0.00274367
0.00271498
0.00268686
0.0026593
0.00263227
0.00260575
0.00257974
0.00255422
0.00252917
0.00250457
0.00248043
0.00245671
0.00243342
0.00241052
0.00238802
0.00372324
0.00367085
0.00361986
0.00357026
0.00352202
0.00347508
0.00342939
0.0033849
0.00334155
0.00329931
0.00325812
0.00321795
0.00317876
0.00314052
0.00310319
0.00306673
0.00303112
0.00299632
0.00296231
0.00292904
0.00289651
0.00286468
0.00283352
0.00280302
0.00277315
0.00274388
0.0027152
0.0026871
0.00265954
0.00263253
0.00260603
0.00258004
0.00255453
0.00252951
0.00250494
0.00248082
0.00245714
0.00243388
0.00241102
0.00238855
0.00372324
0.00367085
0.00361987
0.00357028
0.00352204
0.00347511
0.00342943
0.00338494
0.00334161
0.00329937
0.00325819
0.00321803
0.00317885
0.00314061
0.00310328
0.00306683
0.00303122
0.00299643
0.00296242
0.00292916
0.00289663
0.0028648
0.00283364
0.00280314
0.00277327
0.00274401
0.00271533
0.00268723
0.00265968
0.00263267
0.00260617
0.00258018
0.00255469
0.00252967
0.00250511
0.002481
0.00245733
0.00243407
0.00241122
0.00238877
0.00372324
0.00367085
0.00361987
0.00357028
0.00352204
0.00347511
0.00342943
0.00338494
0.00334161
0.00329937
0.00325819
0.00321803
0.00317885
0.00314061
0.00310328
0.00306683
0.00303122
0.00299643
0.00296242
0.00292916
0.00289663
0.0028648
0.00283364
0.00280314
0.00277327
0.002744
0.00271533
0.00268722
0.00265967
0.00263266
0.00260616
0.00258017
0.00255467
0.00252965
0.00250509
0.00248097
0.00245729
0.00243403
0.00241117
0.0023887
0.00372324
0.00367085
0.00361986
0.00357026
0.00352202
0.00347508
0.00342939
0.0033849
0.00334155
0.00329931
0.00325812
0.00321795
0.00317876
0.00314052
0.00310319
0.00306673
0.00303112
0.00299632
0.0029623
0.00292904
0.00289651
0.00286468
0.00283352
0.00280302
0.00277314
0.00274387
0.00271519
0.00268709
0.00265953
0.00263251
0.002606
0.00258
0.00255449
0.00252945
0.00250487
0.00248074
0.00245703
0.00243375
0.00241086
0.00238836
0.00372324
0.00367085
0.00361985
0.00357025
0.00352199
0.00347504
0.00342934
0.00338483
0.00334147
0.00329921
0.00325801
0.00321783
0.00317864
0.00314038
0.00310304
0.00306658
0.00303096
0.00299615
0.00296213
0.00292886
0.00289632
0.00286448
0.00283332
0.00280281
0.00277293
0.00274365
0.00271496
0.00268684
0.00265927
0.00263223
0.00260571
0.00257969
0.00255415
0.00252908
0.00250446
0.00248029
0.00245654
0.0024332
0.00241025
0.0023877
0.00372324
0.00367085
0.00361985
0.00357024
0.00352198
0.00347501
0.0034293
0.00338478
0.0033414
0.00329913
0.00325792
0.00321772
0.00317851
0.00314025
0.0031029
0.00306642
0.00303079
0.00299598
0.00296195
0.00292867
0.00289613
0.00286428
0.00283311
0.00280258
0.00277269
0.00274339
0.00271468
0.00268653
0.00265893
0.00263185
0.00260529
0.00257921
0.00255362
0.00252849
0.0025038
0.00247955
0.00245571
0.00243228
0.00240924
0.00238657
0.00372324
0.00367085
0.00361985
0.00357024
0.00352198
0.00347501
0.00342929
0.00338476
0.00334137
0.00329909
0.00325787
0.00321767
0.00317845
0.00314017
0.00310281
0.00306633
0.0030307
0.00299587
0.00296183
0.00292855
0.00289598
0.00286412
0.00283292
0.00280237
0.00277244
0.0027431
0.00271434
0.00268614
0.00265847
0.00263131
0.00260466
0.00257849
0.00255278
0.00252753
0.00250272
0.00247832
0.00245434
0.00243075
0.00240754
0.00238469
0.00372324
0.00367086
0.00361987
0.00357027
0.003522
0.00347504
0.00342932
0.00338479
0.0033414
0.00329912
0.0032579
0.00321769
0.00317847
0.0031402
0.00310284
0.00306635
0.0030307
0.00299587
0.00296181
0.0029285
0.0028959
0.002864
0.00283275
0.00280214
0.00277213
0.0027427
0.00271384
0.00268551
0.0026577
0.0026304
0.00260358
0.00257723
0.00255133
0.00252587
0.00250083
0.0024762
0.00245197
0.00242812
0.00240465
0.00238153
0.00372325
0.00367088
0.0036199
0.00357031
0.00352207
0.00347511
0.0034294
0.00338489
0.00334151
0.00329924
0.00325802
0.00321783
0.00317861
0.00314034
0.00310297
0.00306647
0.00303081
0.00299594
0.00296184
0.00292847
0.0028958
0.0028638
0.00283243
0.00280168
0.00277151
0.0027419
0.00271283
0.00268427
0.00265621
0.00262863
0.00260152
0.00257486
0.00254863
0.00252283
0.00249743
0.00247244
0.00244783
0.00242359
0.00239972
0.00237621
0.00372325
0.00367091
0.00361996
0.00357039
0.00352216
0.00347523
0.00342955
0.00338505
0.0033417
0.00329945
0.00325825
0.00321807
0.00317885
0.00314057
0.00310318
0.00306665
0.00303092
0.00299597
0.00296175
0.00292823
0.00289538
0.00286317
0.00283156
0.00280052
0.00277003
0.00274007
0.00271062
0.00268165
0.00265315
0.00262512
0.00259752
0.00257036
0.00254362
0.0025173
0.00249137
0.00246584
0.00244069
0.00241592
0.00239152
0.00236747
0.00372326
0.00367095
0.00362003
0.00357049
0.0035223
0.00347541
0.00342976
0.0033853
0.00334198
0.00329975
0.00325856
0.00321838
0.00317914
0.0031408
0.00310333
0.00306666
0.00303076
0.00299558
0.00296109
0.00292724
0.00289401
0.00286136
0.00282926
0.00279769
0.00276663
0.00273605
0.00270595
0.0026763
0.00264711
0.00261835
0.00259003
0.00256213
0.00253466
0.0025076
0.00248095
0.00245471
0.00242886
0.00240341
0.00237835
0.00235367
0.00372328
0.003671
0.00362012
0.00357064
0.00352249
0.00347564
0.00343004
0.00338562
0.00334233
0.0033001
0.00325889
0.00321863
0.00317926
0.00314074
0.00310299
0.00306598
0.00302965
0.00299397
0.00295888
0.00292436
0.00289038
0.00285692
0.00282395
0.00279146
0.00275943
0.00272786
0.00269674
0.00266608
0.00263586
0.00260608
0.00257675
0.00254787
0.00251944
0.00249146
0.00246392
0.00243683
0.00241019
0.00238398
0.00235822
0.00233289
0.0037233
0.00367107
0.00362026
0.00357083
0.00352275
0.00347596
0.0034304
0.003386
0.00334268
0.00330036
0.00325896
0.00321842
0.00317865
0.00313959
0.00310119
0.00306338
0.00302614
0.00298941
0.00295318
0.00291742
0.00288213
0.00284729
0.00281291
0.00277897
0.00274549
0.00271247
0.00267992
0.00264785
0.00261627
0.0025852
0.00255463
0.00252458
0.00249505
0.00246605
0.00243758
0.00240965
0.00238225
0.00235538
0.00232904
0.00230324
0.00372333
0.00367117
0.00362044
0.0035711
0.00352309
0.00347635
0.00343078
0.00338627
0.0033427
0.00329997
0.00325797
0.00321662
0.00317583
0.00313554
0.00309571
0.00305631
0.00301731
0.00297871
0.00294051
0.00290271
0.00286534
0.00282841
0.00279195
0.00275597
0.0027205
0.00268558
0.00265122
0.00261746
0.00258431
0.00255179
0.00251992
0.00248872
0.00245819
0.00242834
0.00239917
0.00237069
0.0023429
0.00231579
0.00228938
0.00226364
0.00372337
0.00367132
0.00362071
0.00357146
0.00352348
0.00347665
0.0034308
0.00338574
0.0033413
0.00329735
0.00325379
0.00321053
0.00316753
0.00312478
0.00308227
0.00304001
0.00299805
0.00295642
0.00291517
0.00287436
0.00283402
0.00279423
0.00275504
0.00271649
0.00267865
0.00264156
0.00260526
0.0025698
0.00253522
0.00250153
0.00246875
0.00243689
0.00240596
0.00237596
0.0023469
0.00231878
0.0022916
0.00226537
0.00224007
0.00221569
0.00372344
0.00367152
0.00362107
0.00357185
0.00352363
0.00347614
0.0034291
0.00338225
0.00333542
0.00328852
0.00324152
0.00319443
0.00314729
0.00310017
0.00305316
0.00300637
0.00295991
0.00291388
0.00286839
0.00282355
0.00277945
0.00273622
0.00269393
0.00265269
0.00261257
0.00257364
0.00253598
0.00249962
0.00246461
0.00243095
0.00239864
0.0023677
0.00233811
0.00230989
0.00228305
0.00225762
0.00223359
0.00221092
0.00218959
0.00216959
0.00372355
0.0036719
0.00362147
0.00357168
0.00352202
0.00347205
0.00342142
0.00336998
0.00331773
0.00326477
0.00321123
0.00315728
0.00310315
0.00304904
0.00299519
0.00294183
0.00288918
0.00283738
0.00278664
0.00273717
0.00268914
0.00264272
0.00259805
0.00255526
0.00251448
0.00247581
0.00243932
0.00240503
0.00237294
0.00234303
0.00231529
0.00228974
0.00226643
0.00224543
0.00222681
0.00221057
0.00219666
0.00218501
0.00217563
0.00216859
0.00372382
0.00367222
0.00362071
0.00356797
0.00351321
0.0034561
0.00339667
0.00333519
0.00327212
0.00320788
0.00314283
0.00307745
0.00301226
0.00294775
0.00288436
0.00282253
0.00276259
0.00270454
0.00264911
0.00259664
0.00254737
0.00250154
0.00245936
0.00242105
0.0023868
0.0023567
0.00233082
0.00230912
0.00229156
0.00227812
0.00226887
0.00226405
0.00226389
0.00226836
0.00227767
0.00229159
0.00230977
0.00233214
0.00235887
0.0023903
0.00372401
0.00367096
0.00361354
0.00355013
0.0034806
0.00340569
0.00332658
0.00324455
0.00316092
0.0030765
0.00299186
0.00290878
0.00282839
0.00275161
0.00267925
0.00261201
0.00255058
0.00249587
0.00244824
0.00240819
0.00237613
0.00235247
0.0023375
0.00233148
0.00233519
0.00234915
0.00237322
0.0024064
0.00244776
0.00249706
0.00255446
0.0026211
0.00269479
0.00277348
0.00285678
0.00294524
0.0030396
0.00314028
0.00324728
0.00336085
0.00372504
0.00366277
0.00358563
0.00349437
0.00339186
0.00328206
0.00316877
0.00305531
0.00294459
0.00283949
0.00274276
0.00265643
0.00258261
0.00252357
0.00248171
0.00245862
0.0024567
0.00247647
0.00251688
0.00257698
0.00265561
0.00275122
0.00286253
0.00298929
0.00313218
0.0032927
0.00347715
0.00366631
0.00385426
0.00404001
0.0042238
0.0044061
0.00458719
0.0047671
0.00494562
0.00512249
0.00529749
0.00547039
0.00564102
0.00580898
0.00376626
0.00380934
0.00385489
0.00389299
0.00391175
0.00390552
0.00387696
0.00383405
0.00378682
0.0037453
0.0037183
0.00371504
0.00373972
0.00379815
0.00389796
0.00404688
0.00426341
0.0045291
0.00481718
0.00512304
0.00543971
0.00573949
0.00601933
0.00628155
0.00652898
0.00676356
0.00698702
0.00719981
0.00740261
0.00759551
0.00777837
0.007951
0.00811322
0.00826489
0.00840604
0.00853658
0.0086565
0.00876592
0.00886509
0.00895382
0.00541281
0.00844037
0.0107735
0.012308
0.0131509
0.0134798
0.0134616
0.0132257
0.0128626
0.0124314
0.0119688
0.0114967
0.0110313
0.0105786
0.0101409
0.00972088
0.00932286
0.00895149
0.00860529
0.00828151
0.00798
0.00770224
0.00745056
0.00722639
0.00703016
0.00686177
0.00672062
0.00660506
0.00651255
0.00643994
0.00638396
0.00634146
0.0063096
0.00628583
0.00626794
0.00625434
0.00624362
0.00623448
0.00622581
0.00621661
0.0066091
0.00889485
0.013278
0.0183074
0.0225484
0.0255768
0.0276636
0.0291864
0.0303791
0.0313445
0.0321307
0.0327711
0.0332929
0.0337187
0.0340688
0.0343629
0.0346189
0.0348535
0.0350806
0.0353107
0.0355523
0.0358123
0.036094
0.0363964
0.0367144
0.0370406
0.0373665
0.037684
0.0379856
0.0382648
0.0385161
0.0387356
0.0389203
0.039068
0.0391777
0.0392502
0.0392849
0.0392821
0.0392437
0.0391723
0.0390693
0.0389353
0.0387725
0.038584
0.0383725
0.038141
0.0378897
0.0376199
0.0373342
0.0370353
0.0367256
0.0364069
0.0360816
0.0357503
0.0354138
0.0350727
0.0347295
0.0343876
0.0340487
0.0337128
0.0333799
0.0330504
0.0327251
0.0324044
0.0320887
0.0317784
0.0314736
0.0311745
0.0308812
0.0305938
0.0303125
0.0300372
0.0297678
0.0295043
0.0292466
0.0289945
0.0287479
0.0285067
0.0282707
0.0280396
0.0278133
0.0275915
0.027374
0.0271606
0.0269511
0.0267453
0.0265429
0.0263438
0.0261478
0.0259545
0.0257638
0.0255755
0.0253895
0.0252056
0.0250236
0.0248434
0.0246649
0.024488
0.0243126
0.0241385
0.0239657
0.0237942
0.0236237
0.0234543
0.0232859
0.0231183
0.0229514
0.0227854
0.0226199
0.0224551
0.0222909
0.022127
0.0219635
0.0218003
0.0216372
0.0214741
0.0213109
0.0211475
0.020984
0.02082
0.0206558
0.0204914
0.0203268
0.0201626
0.019999
0.0198361
0.0196741
0.0195133
0.0193538
0.0191954
0.019038
0.0188818
0.0187267
0.0185726
0.0184195
0.0182675
0.0181164
0.0179662
0.0178168
0.0176682
0.0175203
0.017373
0.0172264
0.0170803
0.0169347
0.0167895
0.0166447
0.0165005
0.0163566
0.0162132
0.0160703
0.0159278
0.0157857
0.0156441
0.015503
0.0153624
0.0152222
0.0150826
0.0149434
0.0148048
0.0146667
0.0145291
0.0143922
0.0142558
0.0141199
0.0139848
0.0138502
0.0137163
0.0135831
0.0134505
0.0133187
0.0131876
0.0130572
0.0129276
0.0127988
0.0126708
0.0125436
0.0124172
0.0122916
0.012167
0.0120432
0.0119203
0.0117982
0.0116771
0.0115569
0.0114376
0.0113193
0.0112019
0.0110854
0.0109699
0.0108554
0.0107418
0.0106292
0.0105175
0.0104069
0.0102972
0.0101885
0.0100808
0.00997414
0.00986846
0.0097638
0.00966016
0.00955753
0.00945594
0.00935538
0.00925585
0.00915736
0.00905991
0.00896351
0.00886815
0.00877384
0.00868058
0.00858837
0.00849721
0.0084071
0.00831803
0.00823001
0.00814303
0.00805709
0.00797219
0.00788832
0.00780548
0.00772366
0.00764286
0.00756307
0.00748429
0.00740651
0.00732972
0.00725391
0.00717908
0.00710522
0.00703233
0.00696038
0.00688938
0.00681931
0.00675016
0.00668193
0.0066146
0.00654817
0.00648263
0.00641795
0.00635414
0.00629118
0.00622906
0.00616778
0.00610731
0.00604764
0.00598878
0.0059307
0.00587339
0.00581685
0.00576105
0.00570599
0.00565166
0.00559805
0.00554513
0.00549291
0.00544137
0.0053905
0.00534029
0.00529074
0.00524183
0.00519357
0.00514595
0.00509899
0.00505269
0.00500708
0.00496219
0.00491806
0.00487476
0.00483237
0.00479098
0.00475072
0.00471174
0.0046742
0.0046383
0.00460423
0.00457217
0.00454232
0.0045148
0.00448972
0.00446707
0.00444678
0.00442868
0.00441251
0.00439794
0.00438456
0.00437198
0.00435977
0.00434756
0.00433504
0.00432193
0.00430805
0.00429326
0.00427749
0.0042607
0.00424294
0.00422404
0.00420546
0.00417568
0.0090714
0.00962767
0.0107386
0.0125384
0.0149841
0.0177845
0.020548
0.0229868
0.0249971
0.0266126
0.0279164
0.0289808
0.0298534
0.0305672
0.0311508
0.0316313
0.0320329
0.0323765
0.0326797
0.0329568
0.0332202
0.0334804
0.0337451
0.0340183
0.0343
0.0345873
0.034875
0.0351572
0.0354277
0.0356805
0.0359106
0.0361136
0.0362863
0.0364263
0.036532
0.0366032
0.0366397
0.0366415
0.0366098
0.0365464
0.036453
0.0363307
0.0361814
0.0360073
0.0358112
0.0355958
0.0353623
0.035112
0.0348468
0.0345692
0.0342814
0.0339855
0.0336834
0.0333767
0.0330658
0.0327515
0.0324359
0.0321216
0.0318099
0.0315009
0.0311938
0.0308897
0.0305899
0.030295
0.0300056
0.0297217
0.0294436
0.0291717
0.028906
0.0286467
0.0283938
0.0281472
0.0279068
0.0276725
0.0274441
0.0272217
0.0270049
0.0267937
0.0265877
0.0263867
0.0261905
0.0259988
0.0258114
0.0256281
0.0254486
0.0252727
0.0251001
0.0249306
0.0247639
0.0245999
0.0244381
0.0242786
0.024121
0.0239652
0.023811
0.0236583
0.0235069
0.0233568
0.0232077
0.0230597
0.0229125
0.0227662
0.0226205
0.0224755
0.0223309
0.0221869
0.0220432
0.0218999
0.0217569
0.0216142
0.0214717
0.0213294
0.0211872
0.021045
0.0209027
0.0207603
0.0206176
0.0204745
0.020331
0.0201868
0.0200419
0.0198963
0.0197498
0.0196027
0.019455
0.0193067
0.0191585
0.0190105
0.0188628
0.0187155
0.0185687
0.0184229
0.0182779
0.0181335
0.0179897
0.0178466
0.0177042
0.0175624
0.017421
0.0172802
0.0171399
0.017
0.0168606
0.0167214
0.0165826
0.016444
0.0163057
0.0161676
0.0160298
0.0158923
0.0157551
0.0156181
0.0154815
0.0153451
0.0152091
0.0150734
0.0149381
0.0148031
0.0146685
0.0145343
0.0144006
0.0142672
0.0141344
0.014002
0.0138701
0.0137388
0.013608
0.0134777
0.0133481
0.0132191
0.0130907
0.0129629
0.0128359
0.0127095
0.0125838
0.0124589
0.0123348
0.0122114
0.0120888
0.011967
0.011846
0.0117259
0.0116066
0.0114882
0.0113707
0.011254
0.0111382
0.0110233
0.0109094
0.0107963
0.0106842
0.0105729
0.0104627
0.0103533
0.0102449
0.0101375
0.010031
0.0099255
0.00982095
0.00971737
0.00961477
0.00951316
0.00941254
0.00931291
0.00921429
0.00911666
0.00902005
0.00892444
0.00882985
0.00873627
0.00864371
0.00855217
0.00846165
0.00837215
0.00828367
0.00819621
0.00810977
0.00802434
0.00793993
0.00785652
0.00777413
0.00769273
0.00761234
0.00753294
0.00745453
0.0073771
0.00730064
0.00722516
0.00715064
0.00707708
0.00700447
0.00693279
0.00686205
0.00679223
0.00672333
0.00665533
0.00658823
0.00652201
0.00645667
0.0063922
0.00632859
0.00626582
0.00620389
0.00614278
0.00608249
0.006023
0.0059643
0.00590639
0.00584925
0.00579286
0.00573722
0.00568232
0.00562814
0.00557468
0.00552192
0.00546985
0.00541845
0.00536773
0.00531766
0.00526824
0.00521946
0.00517132
0.00512381
0.00507693
0.00503068
0.00498508
0.00494014
0.0048959
0.00485239
0.00480967
0.00476782
0.00472691
0.00468708
0.00464844
0.00461116
0.00457542
0.00454139
0.00450926
0.0044792
0.00445135
0.0044258
0.00440259
0.00438166
0.00436286
0.00434599
0.00433074
0.00431675
0.00430365
0.00429105
0.0042786
0.00426597
0.00425292
0.00423923
0.00422476
0.00420943
0.00419318
0.00417603
0.00415782
0.00413997
0.00411126
0.00581483
0.00600798
0.00629425
0.0067703
0.00755493
0.00875007
0.0103968
0.0124367
0.0147169
0.0170405
0.0192308
0.0211756
0.0228366
0.0242283
0.0253888
0.0263577
0.0271675
0.0278481
0.0284259
0.0289239
0.029362
0.0297571
0.030123
0.0304697
0.0308037
0.0311284
0.0314437
0.0317477
0.032037
0.0323078
0.0325564
0.0327794
0.0329736
0.0331371
0.0332682
0.0333661
0.0334307
0.0334622
0.0334611
0.0334289
0.0333672
0.0332775
0.0331614
0.0330211
0.0328588
0.0326772
0.0324781
0.0322629
0.0320334
0.0317916
0.0315398
0.0312797
0.0310136
0.0307429
0.0304686
0.0301915
0.029913
0.0296316
0.0293514
0.029073
0.0287961
0.0285227
0.0282537
0.0279895
0.0277306
0.0274772
0.02723
0.0269891
0.0267549
0.0265272
0.0263061
0.0260914
0.025883
0.0256808
0.0254848
0.0252949
0.0251107
0.024932
0.0247585
0.0245901
0.0244263
0.0242671
0.0241121
0.023961
0.0238137
0.0236697
0.0235289
0.023391
0.0232557
0.0231227
0.0229918
0.0228627
0.0227354
0.0226095
0.0224849
0.0223614
0.0222388
0.0221171
0.0219962
0.0218757
0.0217558
0.0216363
0.021517
0.0213978
0.0212786
0.0211594
0.0210402
0.0209209
0.0208014
0.0206819
0.0205621
0.0204422
0.020322
0.0202014
0.0200805
0.0199591
0.0198373
0.0197149
0.0195919
0.0194681
0.0193435
0.0192179
0.019091
0.0189631
0.018834
0.0187036
0.0185723
0.0184402
0.0183069
0.0181732
0.0180393
0.0179051
0.017771
0.0176369
0.0175031
0.0173698
0.0172368
0.0171039
0.0169713
0.016839
0.016707
0.0165754
0.016444
0.0163128
0.0161816
0.0160504
0.0159194
0.0157884
0.0156574
0.0155266
0.0153958
0.0152652
0.0151346
0.0150042
0.014874
0.014744
0.0146141
0.0144845
0.0143552
0.0142261
0.0140973
0.0139688
0.0138407
0.013713
0.0135857
0.0134587
0.0133323
0.0132063
0.0130808
0.0129559
0.0128315
0.0127077
0.0125844
0.0124618
0.0123399
0.0122186
0.012098
0.0119781
0.011859
0.0117406
0.0116229
0.0115061
0.01139
0.0112747
0.0111603
0.0110467
0.0109339
0.010822
0.0107109
0.0106007
0.0104914
0.010383
0.0102754
0.0101688
0.0100631
0.00995824
0.00985433
0.00975135
0.00964929
0.00954816
0.00944798
0.00934874
0.00925046
0.00915313
0.00905676
0.00896135
0.00886692
0.00877346
0.00868098
0.00858947
0.00849895
0.00840942
0.00832086
0.0082333
0.00814671
0.00806112
0.00797651
0.00789288
0.00781024
0.00772857
0.00764788
0.00756817
0.00748942
0.00741164
0.00733482
0.00725895
0.00718404
0.00711007
0.00703703
0.00696493
0.00689375
0.00682348
0.00675413
0.00668567
0.00661811
0.00655143
0.00648562
0.00642068
0.0063566
0.00629336
0.00623096
0.00616938
0.00610862
0.00604867
0.00598951
0.00593114
0.00587355
0.00581671
0.00576063
0.0057053
0.00565069
0.0055968
0.00554363
0.00549114
0.00543935
0.00538823
0.00533777
0.00528797
0.00523881
0.00519029
0.00514239
0.0050951
0.00504844
0.00500238
0.00495695
0.00491213
0.00486796
0.00482446
0.00478165
0.0047396
0.00469837
0.00465803
0.00461869
0.00458048
0.00454354
0.00450803
0.00447411
0.00444197
0.00441177
0.00438365
0.0043577
0.00433398
0.00431244
0.00429298
0.00427542
0.0042595
0.0042449
0.00423127
0.00421827
0.00420555
0.00419281
0.00417978
0.00416626
0.0041521
0.00413719
0.00412147
0.00410494
0.00408742
0.00407029
0.00404268
0.00336898
0.00346493
0.00357109
0.00370283
0.00388881
0.00417164
0.00460928
0.0052697
0.00621736
0.00749104
0.0090806
0.0109161
0.0128799
0.0148385
0.0166782
0.0183289
0.0197667
0.0210014
0.0220587
0.0229674
0.023753
0.0244383
0.0250434
0.0255856
0.026079
0.0265346
0.0269584
0.0273541
0.0277232
0.0280655
0.02838
0.0286654
0.0289198
0.0291422
0.0293314
0.0294871
0.029609
0.0296974
0.029753
0.0297769
0.0297707
0.0297361
0.0296749
0.0295889
0.0294805
0.0293518
0.029205
0.029042
0.0288644
0.0286742
0.0284732
0.0282635
0.028047
0.0278254
0.0275998
0.0273713
0.0271408
0.0269056
0.0266662
0.0264254
0.0261849
0.0259485
0.0257159
0.0254872
0.025263
0.0250443
0.0248321
0.0246265
0.0244273
0.0242346
0.0240481
0.0238681
0.0236946
0.0235274
0.0233665
0.0232116
0.0230624
0.0229185
0.0227798
0.022646
0.0225169
0.0223922
0.0222716
0.0221549
0.0220416
0.0219316
0.0218244
0.0217199
0.0216178
0.0215177
0.0214194
0.0213227
0.0212273
0.021133
0.0210397
0.0209471
0.0208551
0.0207636
0.0206724
0.0205814
0.0204904
0.0203994
0.020308
0.0202163
0.0201241
0.0200314
0.0199382
0.0198443
0.0197499
0.0196548
0.0195592
0.0194628
0.0193657
0.0192677
0.019169
0.0190695
0.0189692
0.018868
0.018766
0.018663
0.0185589
0.0184537
0.0183472
0.0182393
0.0181299
0.018019
0.0179066
0.0177926
0.017677
0.0175599
0.0174418
0.0173221
0.0172014
0.0170798
0.0169578
0.0168352
0.0167121
0.0165888
0.0164656
0.0163426
0.01622
0.0160977
0.0159754
0.0158531
0.0157305
0.0156078
0.0154849
0.0153619
0.0152386
0.0151153
0.0149918
0.0148682
0.0147446
0.014621
0.0144973
0.0143736
0.01425
0.0141265
0.014003
0.0138797
0.0137566
0.0136337
0.013511
0.0133885
0.0132663
0.0131445
0.013023
0.0129019
0.0127812
0.0126609
0.0125411
0.0124218
0.012303
0.0121847
0.012067
0.0119499
0.0118334
0.0117175
0.0116023
0.0114878
0.011374
0.0112609
0.0111485
0.0110369
0.010926
0.0108159
0.0107066
0.0105981
0.0104904
0.0103835
0.0102774
0.0101722
0.0100678
0.00996426
0.00986157
0.00975974
0.00965878
0.0095587
0.0094595
0.00936118
0.00926377
0.00916725
0.00907163
0.00897693
0.00888315
0.00879028
0.00869835
0.00860734
0.00851727
0.00842813
0.00833993
0.00825268
0.00816637
0.00808101
0.00799659
0.00791312
0.0078306
0.00774902
0.00766839
0.0075887
0.00750996
0.00743215
0.00735528
0.00727933
0.00720432
0.00713023
0.00705706
0.0069848
0.00691344
0.00684299
0.00677344
0.00670477
0.00663698
0.00657006
0.00650401
0.00643882
0.00637447
0.00631097
0.0062483
0.00618644
0.00612541
0.00606517
0.00600573
0.00594708
0.00588919