/*--------------------------------*- C++ -*----------------------------------*\
| =========                 |                                                 |
| \\      /  F ield         | OpenFOAM: The Open Source CFD Toolbox           |
|  \\    /   O peration     | Version:  2306                                  |
|   \\  /    A nd           | Website:  www.openfoam.com                      |
|    \\/     M anipulation  |                                                 |
\*---------------------------------------------------------------------------*/
FoamFile
{
    version     2.0;
    format      ascii;
    arch        "LSB;label=32;scalar=64";
    class       volScalarField;
    location    "1500";
    object      nut;
}
// * * * * * * * * * * * * * * * * * * * * * * * * * * * * * * * * * * * * * //

dimensions      [0 2 -1 0 0 0 0];

internalField   nonuniform List<scalar> 
25600
(
9.41057e-07
1.38898e-06
1.70585e-06
1.90292e-06
2.00774e-06
2.04801e-06
2.04579e-06
2.01692e-06
1.97215e-06
1.91842e-06
1.86007e-06
1.79979e-06
1.65904e-06
1.51775e-06
1.39521e-06
1.28912e-06
1.19808e-06
1.11941e-06
1.05055e-06
9.901e-07
9.37535e-07
8.92879e-07
8.55443e-07
8.24651e-07
7.99928e-07
7.87911e-07
7.79872e-07
7.73858e-07
7.69742e-07
7.67325e-07
7.66358e-07
7.66591e-07
7.67797e-07
7.71048e-07
7.80212e-07
7.90906e-07
8.02906e-07
8.15485e-07
8.32958e-07
8.40144e-07
8.16569e-06
4.02232e-06
2.90811e-06
2.41348e-06
2.14728e-06
1.98716e-06
1.88281e-06
1.81081e-06
1.75972e-06
1.7241e-06
1.70169e-06
1.69237e-06
1.69598e-06
1.71382e-06
1.74893e-06
1.80372e-06
1.88311e-06
1.90454e-06
1.89297e-06
1.89393e-06
1.9194e-06
1.97952e-06
2.03709e-06
2.09358e-06
2.1504e-06
2.20874e-06
2.26943e-06
2.33268e-06
2.39808e-06
2.46516e-06
2.5334e-06
2.60229e-06
2.67139e-06
2.74037e-06
2.80907e-06
2.87737e-06
2.94462e-06
3.00917e-06
3.08195e-06
3.12122e-06
2.25871e-05
1.7589e-05
1.33179e-05
1.04412e-05
8.52247e-06
7.19679e-06
6.2445e-06
5.53615e-06
4.99328e-06
4.56712e-06
4.22671e-06
3.95134e-06
3.72748e-06
3.54414e-06
3.38557e-06
3.24242e-06
3.11741e-06
3.01629e-06
2.93657e-06
2.87324e-06
2.82376e-06
2.78967e-06
2.77273e-06
2.77338e-06
2.79396e-06
2.83788e-06
2.90485e-06
2.98192e-06
3.04682e-06
3.11126e-06
3.17815e-06
3.2478e-06
3.32055e-06
3.39631e-06
3.47462e-06
3.5552e-06
3.639e-06
3.72581e-06
3.82011e-06
3.91595e-06
2.34718e-05
2.30283e-05
2.18591e-05
2.02391e-05
1.84953e-05
1.68264e-05
1.532e-05
1.39988e-05
1.28548e-05
1.18677e-05
1.10139e-05
1.02733e-05
9.62815e-06
9.06049e-06
8.54433e-06
8.0614e-06
7.60748e-06
7.18733e-06
6.80408e-06
6.45717e-06
6.14404e-06
5.86242e-06
5.61052e-06
5.39053e-06
5.18939e-06
4.97582e-06
4.76353e-06
4.57314e-06
4.41383e-06
4.28684e-06
4.19023e-06
4.12201e-06
4.07758e-06
4.05309e-06
4.0505e-06
4.06842e-06
4.10264e-06
4.14957e-06
4.20536e-06
4.27218e-06
2.34199e-05
2.33648e-05
2.31905e-05
2.28282e-05
2.22725e-05
2.1561e-05
2.07474e-05
1.9883e-05
1.9008e-05
1.81503e-05
1.7327e-05
1.65478e-05
1.58171e-05
1.51359e-05
1.45007e-05
1.39054e-05
1.33442e-05
1.28122e-05
1.23087e-05
1.18329e-05
1.13842e-05
1.09617e-05
1.05632e-05
1.01906e-05
9.83135e-06
9.45535e-06
9.0702e-06
8.69256e-06
8.33373e-06
7.99987e-06
7.69392e-06
7.41697e-06
7.16929e-06
6.94855e-06
6.73174e-06
6.51325e-06
6.30458e-06
6.11725e-06
5.95455e-06
5.82763e-06
2.34109e-05
2.33612e-05
2.33021e-05
2.32094e-05
2.30595e-05
2.28372e-05
2.25388e-05
2.217e-05
2.17429e-05
2.12717e-05
2.07706e-05
2.02519e-05
1.97263e-05
1.92019e-05
1.86852e-05
1.81801e-05
1.7689e-05
1.72126e-05
1.67512e-05
1.63049e-05
1.58741e-05
1.5459e-05
1.50594e-05
1.46754e-05
1.43063e-05
1.39464e-05
1.35908e-05
1.32377e-05
1.28877e-05
1.25427e-05
1.22049e-05
1.18766e-05
1.15601e-05
1.1256e-05
1.09457e-05
1.06235e-05
1.02988e-05
9.98388e-06
9.68751e-06
9.41937e-06
2.34101e-05
2.33569e-05
2.33047e-05
2.32493e-05
2.31838e-05
2.30996e-05
2.29889e-05
2.28459e-05
2.26681e-05
2.24555e-05
2.22107e-05
2.19374e-05
2.16403e-05
2.13245e-05
2.09945e-05
2.0655e-05
2.03098e-05
1.9962e-05
1.9614e-05
1.92677e-05
1.89248e-05
1.85867e-05
1.82543e-05
1.79285e-05
1.761e-05
1.72988e-05
1.69942e-05
1.66948e-05
1.63995e-05
1.61076e-05
1.58189e-05
1.55334e-05
1.52516e-05
1.49746e-05
1.4701e-05
1.44282e-05
1.41551e-05
1.38828e-05
1.36151e-05
1.33533e-05
2.34099e-05
2.33559e-05
2.3303e-05
2.32507e-05
2.31979e-05
2.31422e-05
2.30804e-05
2.30091e-05
2.29248e-05
2.28252e-05
2.27084e-05
2.25736e-05
2.24211e-05
2.22517e-05
2.20666e-05
2.18677e-05
2.1657e-05
2.14363e-05
2.12077e-05
2.09729e-05
2.07336e-05
2.04913e-05
2.02474e-05
2.0003e-05
1.97592e-05
1.95167e-05
1.92763e-05
1.90381e-05
1.88022e-05
1.85684e-05
1.83365e-05
1.81065e-05
1.78783e-05
1.76521e-05
1.74281e-05
1.72063e-05
1.69866e-05
1.67688e-05
1.65541e-05
1.63429e-05
2.34098e-05
2.33554e-05
2.33021e-05
2.32497e-05
2.31981e-05
2.31468e-05
2.30951e-05
2.30415e-05
2.29848e-05
2.29232e-05
2.28553e-05
2.27797e-05
2.26954e-05
2.26016e-05
2.24982e-05
2.23849e-05
2.22621e-05
2.21303e-05
2.19903e-05
2.18427e-05
2.16884e-05
2.15285e-05
2.13637e-05
2.11951e-05
2.10233e-05
2.08492e-05
2.06736e-05
2.04969e-05
2.03196e-05
2.01421e-05
1.99647e-05
1.97875e-05
1.96107e-05
1.94344e-05
1.92589e-05
1.90845e-05
1.89115e-05
1.87402e-05
1.85714e-05
1.84056e-05
2.34098e-05
2.33552e-05
2.33016e-05
2.32489e-05
2.31972e-05
2.31464e-05
2.30962e-05
2.30463e-05
2.29962e-05
2.29453e-05
2.28928e-05
2.2838e-05
2.278e-05
2.27183e-05
2.2652e-05
2.25809e-05
2.25044e-05
2.24224e-05
2.23348e-05
2.22418e-05
2.21434e-05
2.204e-05
2.19319e-05
2.18195e-05
2.17032e-05
2.15836e-05
2.1461e-05
2.13358e-05
2.12086e-05
2.10796e-05
2.09492e-05
2.08177e-05
2.06853e-05
2.05524e-05
2.04191e-05
2.02857e-05
2.01527e-05
2.00205e-05
1.98895e-05
1.97604e-05
2.34097e-05
2.3355e-05
2.33012e-05
2.32484e-05
2.31966e-05
2.31457e-05
2.30956e-05
2.30462e-05
2.29975e-05
2.29491e-05
2.29008e-05
2.28523e-05
2.28032e-05
2.27531e-05
2.27015e-05
2.2648e-05
2.25924e-05
2.25341e-05
2.24731e-05
2.2409e-05
2.23418e-05
2.22714e-05
2.21978e-05
2.2121e-05
2.20411e-05
2.19583e-05
2.18729e-05
2.17849e-05
2.16946e-05
2.16022e-05
2.15079e-05
2.1412e-05
2.13147e-05
2.12162e-05
2.11167e-05
2.10165e-05
2.09158e-05
2.0815e-05
2.07146e-05
2.06149e-05
2.34097e-05
2.33549e-05
2.3301e-05
2.32482e-05
2.31962e-05
2.31452e-05
2.30951e-05
2.30459e-05
2.29974e-05
2.29495e-05
2.29023e-05
2.28556e-05
2.28091e-05
2.27628e-05
2.27164e-05
2.26697e-05
2.26223e-05
2.25742e-05
2.25251e-05
2.24747e-05
2.24228e-05
2.23694e-05
2.23143e-05
2.22574e-05
2.21986e-05
2.2138e-05
2.20755e-05
2.20112e-05
2.19451e-05
2.18773e-05
2.18079e-05
2.1737e-05
2.16647e-05
2.15912e-05
2.15166e-05
2.14411e-05
2.13648e-05
2.1288e-05
2.1211e-05
2.11339e-05
2.34097e-05
2.33549e-05
2.33011e-05
2.32483e-05
2.31964e-05
2.31455e-05
2.30955e-05
2.30463e-05
2.2998e-05
2.29504e-05
2.29036e-05
2.28574e-05
2.28119e-05
2.27668e-05
2.27222e-05
2.26779e-05
2.26338e-05
2.25897e-05
2.25455e-05
2.2501e-05
2.24561e-05
2.24108e-05
2.23647e-05
2.23179e-05
2.22703e-05
2.22217e-05
2.21721e-05
2.21214e-05
2.20697e-05
2.2017e-05
2.19631e-05
2.19082e-05
2.18524e-05
2.17955e-05
2.17378e-05
2.16793e-05
2.16201e-05
2.15603e-05
2.15e-05
2.14396e-05
2.34098e-05
2.33553e-05
2.33018e-05
2.32493e-05
2.31978e-05
2.31473e-05
2.30976e-05
2.30488e-05
2.30008e-05
2.29536e-05
2.29071e-05
2.28614e-05
2.28164e-05
2.27719e-05
2.27281e-05
2.26848e-05
2.2642e-05
2.25996e-05
2.25574e-05
2.25155e-05
2.24737e-05
2.24319e-05
2.23901e-05
2.23481e-05
2.23059e-05
2.22634e-05
2.22206e-05
2.21773e-05
2.21335e-05
2.20892e-05
2.20443e-05
2.19989e-05
2.1953e-05
2.19064e-05
2.18593e-05
2.18117e-05
2.17636e-05
2.1715e-05
2.16661e-05
2.1617e-05
2.34103e-05
2.33566e-05
2.33039e-05
2.32523e-05
2.32015e-05
2.31517e-05
2.31027e-05
2.30546e-05
2.30073e-05
2.29607e-05
2.29149e-05
2.28697e-05
2.28252e-05
2.27814e-05
2.27382e-05
2.26956e-05
2.26535e-05
2.26119e-05
2.25708e-05
2.253e-05
2.24896e-05
2.24495e-05
2.24096e-05
2.23699e-05
2.23303e-05
2.22908e-05
2.22512e-05
2.22116e-05
2.21719e-05
2.21321e-05
2.20921e-05
2.20519e-05
2.20115e-05
2.19709e-05
2.193e-05
2.18889e-05
2.18475e-05
2.18059e-05
2.17641e-05
2.17221e-05
2.34111e-05
2.33591e-05
2.33079e-05
2.32576e-05
2.32082e-05
2.31597e-05
2.31119e-05
2.30649e-05
2.30186e-05
2.2973e-05
2.29281e-05
2.28837e-05
2.28401e-05
2.2797e-05
2.27544e-05
2.27125e-05
2.2671e-05
2.26301e-05
2.25896e-05
2.25495e-05
2.25099e-05
2.24706e-05
2.24317e-05
2.2393e-05
2.23546e-05
2.23164e-05
2.22784e-05
2.22406e-05
2.22029e-05
2.21653e-05
2.21277e-05
2.20902e-05
2.20527e-05
2.20152e-05
2.19777e-05
2.19401e-05
2.19025e-05
2.18649e-05
2.18273e-05
2.17895e-05
2.34123e-05
2.33625e-05
2.33135e-05
2.32653e-05
2.32178e-05
2.3171e-05
2.31248e-05
2.30793e-05
2.30344e-05
2.29901e-05
2.29463e-05
2.29031e-05
2.28604e-05
2.28182e-05
2.27765e-05
2.27352e-05
2.26944e-05
2.26541e-05
2.26142e-05
2.25747e-05
2.25355e-05
2.24967e-05
2.24583e-05
2.24202e-05
2.23824e-05
2.23448e-05
2.23075e-05
2.22705e-05
2.22337e-05
2.2197e-05
2.21606e-05
2.21243e-05
2.20882e-05
2.20522e-05
2.20163e-05
2.19805e-05
2.19449e-05
2.19093e-05
2.18738e-05
2.18383e-05
2.34137e-05
2.33666e-05
2.33201e-05
2.32742e-05
2.32289e-05
2.31841e-05
2.31398e-05
2.3096e-05
2.30527e-05
2.30098e-05
2.29673e-05
2.29252e-05
2.28835e-05
2.28423e-05
2.28014e-05
2.27609e-05
2.27208e-05
2.2681e-05
2.26416e-05
2.26026e-05
2.25638e-05
2.25254e-05
2.24873e-05
2.24495e-05
2.2412e-05
2.23748e-05
2.23378e-05
2.2301e-05
2.22646e-05
2.22283e-05
2.21923e-05
2.21565e-05
2.21209e-05
2.20855e-05
2.20503e-05
2.20153e-05
2.19805e-05
2.19458e-05
2.19113e-05
2.18769e-05
2.34151e-05
2.33707e-05
2.33266e-05
2.3283e-05
2.32397e-05
2.31968e-05
2.31542e-05
2.31119e-05
2.30699e-05
2.30282e-05
2.29868e-05
2.29458e-05
2.2905e-05
2.28645e-05
2.28243e-05
2.27845e-05
2.27449e-05
2.27056e-05
2.26666e-05
2.26279e-05
2.25895e-05
2.25514e-05
2.25135e-05
2.24759e-05
2.24385e-05
2.24014e-05
2.23645e-05
2.23279e-05
2.22915e-05
2.22554e-05
2.22195e-05
2.21838e-05
2.21484e-05
2.21132e-05
2.20782e-05
2.20434e-05
2.20088e-05
2.19745e-05
2.19403e-05
2.19062e-05
2.34163e-05
2.3374e-05
2.33317e-05
2.32895e-05
2.32475e-05
2.32057e-05
2.31641e-05
2.31227e-05
2.30815e-05
2.30405e-05
2.29998e-05
2.29593e-05
2.2919e-05
2.2879e-05
2.28392e-05
2.27996e-05
2.27604e-05
2.27214e-05
2.26826e-05
2.26441e-05
2.26058e-05
2.25678e-05
2.253e-05
2.24925e-05
2.24552e-05
2.24181e-05
2.23813e-05
2.23447e-05
2.23083e-05
2.22722e-05
2.22363e-05
2.22006e-05
2.21652e-05
2.21299e-05
2.2095e-05
2.20602e-05
2.20256e-05
2.19913e-05
2.19571e-05
2.1923e-05
2.34163e-05
2.3374e-05
2.33317e-05
2.32895e-05
2.32475e-05
2.32057e-05
2.31641e-05
2.31227e-05
2.30815e-05
2.30405e-05
2.29998e-05
2.29593e-05
2.2919e-05
2.2879e-05
2.28392e-05
2.27996e-05
2.27604e-05
2.27214e-05
2.26826e-05
2.26441e-05
2.26058e-05
2.25678e-05
2.253e-05
2.24925e-05
2.24552e-05
2.24181e-05
2.23812e-05
2.23446e-05
2.23082e-05
2.22721e-05
2.22362e-05
2.22005e-05
2.2165e-05
2.21298e-05
2.20947e-05
2.20599e-05
2.20253e-05
2.19908e-05
2.19565e-05
2.19224e-05
2.34151e-05
2.33707e-05
2.33266e-05
2.3283e-05
2.32397e-05
2.31968e-05
2.31542e-05
2.31119e-05
2.30699e-05
2.30282e-05
2.29868e-05
2.29458e-05
2.2905e-05
2.28645e-05
2.28243e-05
2.27845e-05
2.27449e-05
2.27056e-05
2.26666e-05
2.26279e-05
2.25895e-05
2.25513e-05
2.25135e-05
2.24758e-05
2.24384e-05
2.24013e-05
2.23644e-05
2.23278e-05
2.22914e-05
2.22552e-05
2.22193e-05
2.21835e-05
2.2148e-05
2.21127e-05
2.20776e-05
2.20426e-05
2.20079e-05
2.19732e-05
2.19387e-05
2.19043e-05
2.34137e-05
2.33666e-05
2.33201e-05
2.32742e-05
2.32289e-05
2.31841e-05
2.31398e-05
2.3096e-05
2.30527e-05
2.30098e-05
2.29673e-05
2.29252e-05
2.28835e-05
2.28423e-05
2.28014e-05
2.27609e-05
2.27208e-05
2.2681e-05
2.26416e-05
2.26026e-05
2.25638e-05
2.25254e-05
2.24873e-05
2.24495e-05
2.24119e-05
2.23747e-05
2.23377e-05
2.23009e-05
2.22644e-05
2.22281e-05
2.2192e-05
2.21561e-05
2.21204e-05
2.20848e-05
2.20495e-05
2.20142e-05
2.1979e-05
2.1944e-05
2.1909e-05
2.1874e-05
2.34123e-05
2.33625e-05
2.33135e-05
2.32653e-05
2.32178e-05
2.3171e-05
2.31248e-05
2.30793e-05
2.30344e-05
2.29901e-05
2.29463e-05
2.29031e-05
2.28604e-05
2.28182e-05
2.27765e-05
2.27352e-05
2.26944e-05
2.26541e-05
2.26142e-05
2.25746e-05
2.25355e-05
2.24967e-05
2.24583e-05
2.24201e-05
2.23823e-05
2.23447e-05
2.23074e-05
2.22703e-05
2.22334e-05
2.21967e-05
2.21602e-05
2.21238e-05
2.20875e-05
2.20513e-05
2.20152e-05
2.19791e-05
2.1943e-05
2.19069e-05
2.18708e-05
2.18345e-05
2.34111e-05
2.33591e-05
2.33079e-05
2.32576e-05
2.32082e-05
2.31597e-05
2.31119e-05
2.30649e-05
2.30186e-05
2.2973e-05
2.2928e-05
2.28837e-05
2.28401e-05
2.2797e-05
2.27544e-05
2.27125e-05
2.2671e-05
2.26301e-05
2.25896e-05
2.25495e-05
2.25099e-05
2.24706e-05
2.24316e-05
2.23929e-05
2.23545e-05
2.23163e-05
2.22783e-05
2.22404e-05
2.22026e-05
2.21649e-05
2.21273e-05
2.20896e-05
2.20519e-05
2.20142e-05
2.19764e-05
2.19384e-05
2.19003e-05
2.1862e-05
2.18234e-05
2.17846e-05
2.34103e-05
2.33566e-05
2.33039e-05
2.32523e-05
2.32015e-05
2.31517e-05
2.31027e-05
2.30546e-05
2.30073e-05
2.29607e-05
2.29149e-05
2.28697e-05
2.28252e-05
2.27814e-05
2.27382e-05
2.26956e-05
2.26535e-05
2.26119e-05
2.25708e-05
2.253e-05
2.24896e-05
2.24495e-05
2.24096e-05
2.23698e-05
2.23302e-05
2.22906e-05
2.2251e-05
2.22114e-05
2.21716e-05
2.21317e-05
2.20916e-05
2.20512e-05
2.20106e-05
2.19697e-05
2.19284e-05
2.18867e-05
2.18446e-05
2.1802e-05
2.1759e-05
2.17155e-05
2.34098e-05
2.33553e-05
2.33018e-05
2.32493e-05
2.31978e-05
2.31473e-05
2.30976e-05
2.30488e-05
2.30008e-05
2.29536e-05
2.29071e-05
2.28614e-05
2.28163e-05
2.27719e-05
2.27281e-05
2.26848e-05
2.2642e-05
2.25995e-05
2.25574e-05
2.25155e-05
2.24737e-05
2.24319e-05
2.23901e-05
2.23481e-05
2.23058e-05
2.22633e-05
2.22204e-05
2.2177e-05
2.21331e-05
2.20887e-05
2.20437e-05
2.19981e-05
2.19518e-05
2.19048e-05
2.18571e-05
2.18087e-05
2.17595e-05
2.17096e-05
2.16589e-05
2.16073e-05
2.34097e-05
2.33549e-05
2.33011e-05
2.32483e-05
2.31964e-05
2.31455e-05
2.30955e-05
2.30463e-05
2.2998e-05
2.29504e-05
2.29036e-05
2.28574e-05
2.28119e-05
2.27668e-05
2.27222e-05
2.26779e-05
2.26338e-05
2.25896e-05
2.25454e-05
2.2501e-05
2.24561e-05
2.24107e-05
2.23647e-05
2.23178e-05
2.22701e-05
2.22215e-05
2.21718e-05
2.21211e-05
2.20692e-05
2.20163e-05
2.19622e-05
2.1907e-05
2.18506e-05
2.17931e-05
2.17345e-05
2.16748e-05
2.1614e-05
2.1552e-05
2.14889e-05
2.14247e-05
2.34097e-05
2.33549e-05
2.3301e-05
2.32482e-05
2.31962e-05
2.31452e-05
2.30951e-05
2.30459e-05
2.29974e-05
2.29495e-05
2.29023e-05
2.28556e-05
2.28091e-05
2.27628e-05
2.27164e-05
2.26696e-05
2.26223e-05
2.25742e-05
2.2525e-05
2.24746e-05
2.24228e-05
2.23694e-05
2.23142e-05
2.22573e-05
2.21984e-05
2.21377e-05
2.20751e-05
2.20106e-05
2.19443e-05
2.18762e-05
2.18064e-05
2.1735e-05
2.1662e-05
2.15874e-05
2.15114e-05
2.1434e-05
2.13553e-05
2.12751e-05
2.11936e-05
2.11108e-05
2.34097e-05
2.3355e-05
2.33012e-05
2.32484e-05
2.31966e-05
2.31457e-05
2.30956e-05
2.30462e-05
2.29975e-05
2.29491e-05
2.29008e-05
2.28523e-05
2.28032e-05
2.27531e-05
2.27015e-05
2.2648e-05
2.25923e-05
2.25341e-05
2.24731e-05
2.2409e-05
2.23417e-05
2.22713e-05
2.21976e-05
2.21207e-05
2.20408e-05
2.19579e-05
2.18722e-05
2.1784e-05
2.16933e-05
2.16005e-05
2.15056e-05
2.14088e-05
2.13103e-05
2.12102e-05
2.11085e-05
2.10054e-05
2.09009e-05
2.07951e-05
2.06878e-05
2.05792e-05
2.34098e-05
2.33552e-05
2.33016e-05
2.32489e-05
2.31972e-05
2.31464e-05
2.30962e-05
2.30463e-05
2.29962e-05
2.29453e-05
2.28928e-05
2.2838e-05
2.278e-05
2.27183e-05
2.2652e-05
2.25809e-05
2.25044e-05
2.24224e-05
2.23348e-05
2.22417e-05
2.21433e-05
2.20398e-05
2.19316e-05
2.18191e-05
2.17027e-05
2.15828e-05
2.14599e-05
2.13344e-05
2.12066e-05
2.10769e-05
2.09455e-05
2.08126e-05
2.06784e-05
2.05431e-05
2.04066e-05
2.0269e-05
2.01304e-05
1.99906e-05
1.98496e-05
1.97073e-05
2.34098e-05
2.33554e-05
2.33021e-05
2.32497e-05
2.31981e-05
2.31468e-05
2.30951e-05
2.30415e-05
2.29848e-05
2.29232e-05
2.28553e-05
2.27797e-05
2.26954e-05
2.26016e-05
2.24981e-05
2.23849e-05
2.22621e-05
2.21303e-05
2.19902e-05
2.18425e-05
2.16882e-05
2.15282e-05
2.13633e-05
2.11944e-05
2.10224e-05
2.0848e-05
2.06719e-05
2.04946e-05
2.03165e-05
2.01379e-05
1.9959e-05
1.97799e-05
1.96005e-05
1.94208e-05
1.92409e-05
1.90605e-05
1.88796e-05
1.86979e-05
1.85149e-05
1.83305e-05
2.34099e-05
2.33559e-05
2.3303e-05
2.32507e-05
2.31979e-05
2.31422e-05
2.30804e-05
2.30091e-05
2.29248e-05
2.28252e-05
2.27084e-05
2.25736e-05
2.24211e-05
2.22517e-05
2.20666e-05
2.18677e-05
2.16569e-05
2.14362e-05
2.12075e-05
2.09727e-05
2.07332e-05
2.04908e-05
2.02467e-05
2.0002e-05
1.97578e-05
1.95149e-05
1.92738e-05
1.90348e-05
1.87977e-05
1.85624e-05
1.83286e-05
1.8096e-05
1.78644e-05
1.76338e-05
1.74039e-05
1.71743e-05
1.6944e-05
1.67122e-05
1.64783e-05
1.6242e-05
2.34101e-05
2.33569e-05
2.33047e-05
2.32493e-05
2.31838e-05
2.30996e-05
2.29889e-05
2.28459e-05
2.26681e-05
2.24555e-05
2.22107e-05
2.19374e-05
2.16403e-05
2.13244e-05
2.09945e-05
2.0655e-05
2.03097e-05
1.99618e-05
1.96137e-05
1.92674e-05
1.89243e-05
1.85859e-05
1.82533e-05
1.79271e-05
1.76081e-05
1.72963e-05
1.69909e-05
1.66904e-05
1.63938e-05
1.61e-05
1.58088e-05
1.55201e-05
1.52341e-05
1.49515e-05
1.46701e-05
1.43864e-05
1.40985e-05
1.38065e-05
1.35116e-05
1.32157e-05
2.34109e-05
2.33612e-05
2.33021e-05
2.32094e-05
2.30595e-05
2.28372e-05
2.25388e-05
2.217e-05
2.17429e-05
2.12717e-05
2.07705e-05
2.02519e-05
1.97262e-05
1.92019e-05
1.86851e-05
1.818e-05
1.76889e-05
1.72124e-05
1.67508e-05
1.63044e-05
1.58734e-05
1.54581e-05
1.50582e-05
1.46738e-05
1.43041e-05
1.39434e-05
1.35867e-05
1.32322e-05
1.28804e-05
1.2533e-05
1.21921e-05
1.18596e-05
1.15379e-05
1.12259e-05
1.09027e-05
1.05638e-05
1.02194e-05
9.8801e-06
9.5532e-06
9.24314e-06
2.34199e-05
2.33648e-05
2.31905e-05
2.28282e-05
2.22725e-05
2.1561e-05
2.07474e-05
1.9883e-05
1.9008e-05
1.81503e-05
1.7327e-05
1.65478e-05
1.58171e-05
1.51358e-05
1.45006e-05
1.39053e-05
1.33439e-05
1.28119e-05
1.23082e-05
1.18323e-05
1.13834e-05
1.09606e-05
1.05617e-05
1.01888e-05
9.8286e-06
9.45135e-06
9.06477e-06
8.68548e-06
8.32466e-06
7.98836e-06
7.67944e-06
7.39878e-06
7.14679e-06
6.91931e-06
6.6917e-06
6.46126e-06
6.24097e-06
6.04103e-06
5.86607e-06
5.71679e-06
2.34718e-05
2.30283e-05
2.18591e-05
2.02391e-05
1.84953e-05
1.68264e-05
1.532e-05
1.39988e-05
1.28548e-05
1.18677e-05
1.10138e-05
1.02732e-05
9.62808e-06
9.06039e-06
8.54418e-06
8.06119e-06
7.60721e-06
7.18696e-06
6.8036e-06
6.45655e-06
6.14324e-06
5.8614e-06
5.60921e-06
5.38895e-06
5.18714e-06
4.97269e-06
4.7597e-06
4.56877e-06
4.40903e-06
4.28168e-06
4.18481e-06
4.11656e-06
4.07198e-06
4.04777e-06
4.04633e-06
4.06582e-06
4.10209e-06
4.15182e-06
4.21331e-06
4.28415e-06
2.25871e-05
1.7589e-05
1.33179e-05
1.04412e-05
8.52246e-06
7.19678e-06
6.24449e-06
5.53614e-06
4.99326e-06
4.56709e-06
4.22669e-06
3.9513e-06
3.72743e-06
3.54408e-06
3.38549e-06
3.24231e-06
3.11729e-06
3.01616e-06
2.93642e-06
2.87308e-06
2.82358e-06
2.78949e-06
2.77256e-06
2.77325e-06
2.79395e-06
2.83807e-06
2.9052e-06
2.9825e-06
3.04685e-06
3.11134e-06
3.17833e-06
3.2482e-06
3.32132e-06
3.3976e-06
3.47686e-06
3.55873e-06
3.64306e-06
3.72971e-06
3.81858e-06
3.90941e-06
8.16569e-06
4.02232e-06
2.90811e-06
2.41348e-06
2.14728e-06
1.98716e-06
1.88281e-06
1.81081e-06
1.75972e-06
1.7241e-06
1.70169e-06
1.69237e-06
1.69598e-06
1.71382e-06
1.74894e-06
1.80373e-06
1.88313e-06
1.90451e-06
1.89292e-06
1.89386e-06
1.91932e-06
1.97938e-06
2.03687e-06
2.09324e-06
2.14991e-06
2.20807e-06
2.26851e-06
2.33144e-06
2.3964e-06
2.46286e-06
2.53026e-06
2.59799e-06
2.66552e-06
2.73231e-06
2.79787e-06
2.86191e-06
2.92405e-06
2.98391e-06
3.04121e-06
3.09553e-06
9.41057e-07
1.38898e-06
1.70585e-06
1.90292e-06
2.00774e-06
2.04801e-06
2.04579e-06
2.01692e-06
1.97215e-06
1.91842e-06
1.86007e-06
1.79978e-06
1.65901e-06
1.51771e-06
1.39516e-06
1.28906e-06
1.19799e-06
1.11929e-06
1.0504e-06
9.8989e-07
9.37257e-07
8.92511e-07
8.54957e-07
8.24013e-07
7.99089e-07
7.87623e-07
7.79492e-07
7.73366e-07
7.69109e-07
7.66508e-07
7.65307e-07
7.65237e-07
7.66053e-07
7.67534e-07
7.6951e-07
7.76602e-07
7.84069e-07
7.91659e-07
7.99145e-07
8.06328e-07
1.53273e-06
2.73921e-06
5.0246e-06
8.03053e-06
1.11405e-05
1.40266e-05
1.66745e-05
1.91795e-05
2.1612e-05
2.39952e-05
2.63308e-05
2.86189e-05
3.08619e-05
3.30638e-05
3.52304e-05
3.73697e-05
3.94926e-05
4.16113e-05
4.37388e-05
4.58865e-05
4.80652e-05
5.02842e-05
5.25489e-05
5.48586e-05
5.72064e-05
5.95803e-05
6.19658e-05
6.43467e-05
6.67072e-05
6.90319e-05
7.13061e-05
7.3518e-05
7.56569e-05
7.77135e-05
7.96812e-05
8.15575e-05
8.33369e-05
8.50167e-05
8.65972e-05
8.80815e-05
8.94706e-05
9.07639e-05
9.19644e-05
9.30778e-05
9.41099e-05
9.50668e-05
9.59485e-05
9.67571e-05
9.74988e-05
9.81802e-05
9.88073e-05
9.93855e-05
9.99201e-05
0.000100415
0.000100869
0.000101286
0.000101672
0.000102037
0.000102387
0.000102636
0.000102637
0.000102593
0.000102527
0.000102453
0.000102378
0.0001023
0.000102224
0.000102156
0.000102099
0.000102056
0.000102029
0.000102014
0.000102013
0.000102027
0.000102057
0.000102106
0.000102174
0.000102258
0.000102357
0.000102472
0.000102602
0.00010275
0.000102913
0.00010309
0.000103282
0.000103489
0.000103707
0.000103936
0.000104177
0.000104429
0.00010469
0.000104959
0.000105235
0.000105518
0.000105805
0.000106094
0.000106387
0.000106681
0.000106974
0.000107265
0.000107556
0.000107844
0.000108128
0.000108411
0.000108694
0.000108975
0.000109259
0.000109551
0.000109848
0.00011016
0.000110493
0.000110849
0.000111241
0.000111673
0.000112157
0.000112697
0.000113302
0.000113978
0.000114699
0.000115496
0.000116305
0.000117082
0.000117793
0.000118444
0.000118762
0.000118831
0.000118891
0.000118944
0.000118991
0.000119031
0.000119063
0.00011909
0.00011911
0.000119124
0.000119132
0.000119134
0.00011913
0.000119119
0.000119103
0.000119082
0.000119055
0.000119023
0.000118987
0.000118946
0.000118899
0.000118846
0.000118788
0.000118723
0.000118651
0.000118573
0.000118488
0.000118397
0.000118298
0.000118193
0.00011808
0.000117961
0.000117835
0.000117702
0.000117562
0.000117415
0.000117261
0.0001171
0.000116933
0.000116758
0.000116578
0.00011639
0.000116196
0.000115996
0.000115789
0.000115577
0.000115358
0.000115132
0.000114901
0.000114664
0.000114422
0.000114173
0.00011392
0.00011366
0.000113396
0.000113126
0.000112851
0.000112571
0.000112286
0.000111996
0.000111701
0.000111401
0.000111097
0.000110789
0.000110476
0.000110159
0.000109837
0.000109511
0.000109181
0.000108848
0.00010851
0.000108169
0.000107824
0.000107475
0.000107123
0.000106768
0.00010641
0.00010605
0.000105686
0.00010532
0.000104951
0.00010458
0.000104207
0.000103832
0.000103456
0.000103077
0.000102697
0.000102316
0.000101934
0.000101551
0.000101167
0.000100782
0.000100396
0.00010001
9.96242e-05
9.92377e-05
9.88512e-05
9.84647e-05
9.80784e-05
9.76922e-05
9.73064e-05
9.69211e-05
9.65362e-05
9.61519e-05
9.57683e-05
9.53855e-05
9.50034e-05
9.46222e-05
9.42419e-05
9.38626e-05
9.34842e-05
9.3107e-05
9.27308e-05
9.23557e-05
9.19818e-05
9.1609e-05
9.12375e-05
9.08671e-05
9.04979e-05
9.013e-05
8.97632e-05
8.93977e-05
8.90334e-05
8.86703e-05
8.83084e-05
8.79477e-05
8.75882e-05
8.72297e-05
8.68724e-05
8.65162e-05
8.61611e-05
8.5807e-05
8.54539e-05
8.51018e-05
8.47507e-05
8.44005e-05
8.40515e-05
8.37034e-05
8.33566e-05
8.30112e-05
8.26673e-05
8.23255e-05
8.19861e-05
8.16499e-05
8.13179e-05
8.09912e-05
8.06713e-05
8.03602e-05
8.00601e-05
7.97739e-05
7.95045e-05
7.92554e-05
7.90303e-05
7.88329e-05
7.86665e-05
7.8534e-05
7.84371e-05
7.83766e-05
7.83514e-05
7.83589e-05
7.83947e-05
7.8453e-05
7.85271e-05
7.86098e-05
7.86936e-05
7.8772e-05
7.88388e-05
7.88894e-05
7.89201e-05
7.89284e-05
7.89128e-05
7.88725e-05
7.88076e-05
7.87193e-05
7.86082e-05
7.84232e-05
3.63592e-06
4.24953e-06
5.03104e-06
6.18503e-06
7.78892e-06
9.80405e-06
1.20936e-05
1.45012e-05
1.69156e-05
1.92893e-05
2.16163e-05
2.39019e-05
2.61471e-05
2.83493e-05
3.05081e-05
3.26278e-05
3.47157e-05
3.67805e-05
3.88319e-05
4.08793e-05
4.29328e-05
4.50024e-05
4.70964e-05
4.92194e-05
5.13708e-05
5.35458e-05
5.57356e-05
5.79292e-05
6.0114e-05
6.22769e-05
6.4405e-05
6.64868e-05
6.85116e-05
7.04701e-05
7.2355e-05
7.41612e-05
7.58841e-05
7.75199e-05
7.90671e-05
8.05266e-05
8.18994e-05
8.31855e-05
8.43865e-05
8.55061e-05
8.6549e-05
8.75205e-05
8.84226e-05
8.92573e-05
9.00291e-05
9.07433e-05
9.14054e-05
9.20204e-05
9.25935e-05
9.31288e-05
9.36279e-05
9.40926e-05
9.45286e-05
9.47293e-05
9.47828e-05
9.47993e-05
9.47665e-05
9.47195e-05
9.46672e-05
9.46129e-05
9.45563e-05
9.45009e-05
9.44544e-05
9.44229e-05
9.44085e-05
9.4411e-05
9.44292e-05
9.44614e-05
9.45097e-05
9.45767e-05
9.4664e-05
9.47721e-05
9.49e-05
9.5045e-05
9.52056e-05
9.53825e-05
9.5577e-05
9.57896e-05
9.60196e-05
9.62653e-05
9.65256e-05
9.67999e-05
9.70868e-05
9.73855e-05
9.76968e-05
9.80207e-05
9.83553e-05
9.86988e-05
9.90512e-05
9.94115e-05
9.97772e-05
0.000100147
0.000100521
0.000100898
0.000101276
0.000101654
0.000102031
0.000102406
0.000102776
0.000103143
0.000103506
0.000103863
0.000104215
0.000104565
0.00010491
0.000105254
0.000105601
0.000105952
0.000106313
0.000106693
0.000107094
0.000107527
0.000108
0.000108527
0.000109102
0.000109754
0.00011046
0.000111222
0.000112029
0.000112833
0.000113596
0.000114299
0.000114945
0.000115397
0.000115486
0.000115567
0.000115638
0.000115704
0.000115763
0.000115815
0.000115859
0.000115897
0.000115929
0.000115955
0.000115974
0.000115987
0.000115995
0.000115999
0.000115998
0.000115992
0.00011598
0.000115961
0.000115936
0.000115904
0.000115864
0.000115817
0.000115763
0.000115701
0.000115632
0.000115556
0.000115472
0.000115381
0.000115282
0.000115176
0.000115063
0.000114942
0.000114815
0.00011468
0.000114538
0.000114389
0.000114233
0.00011407
0.0001139
0.000113724
0.000113541
0.000113351
0.000113155
0.000112953
0.000112745
0.00011253
0.00011231
0.000112084
0.000111852
0.000111614
0.000111371
0.000111122
0.000110868
0.000110609
0.000110345
0.000110075
0.000109801
0.000109522
0.000109238
0.000108949
0.000108656
0.000108359
0.000108057
0.00010775
0.00010744
0.000107125
0.000106807
0.000106484
0.000106158
0.000105829
0.000105495
0.000105159
0.000104819
0.000104477
0.000104131
0.000103782
0.000103432
0.000103078
0.000102723
0.000102365
0.000102005
0.000101644
0.000101281
0.000100916
0.00010055
0.000100183
9.98151e-05
9.94462e-05
9.90765e-05
9.87061e-05
9.83353e-05
9.79642e-05
9.75928e-05
9.72213e-05
9.68497e-05
9.64782e-05
9.6107e-05
9.5736e-05
9.53653e-05
9.49952e-05
9.46255e-05
9.42564e-05
9.38881e-05
9.35204e-05
9.31535e-05
9.27875e-05
9.24223e-05
9.20581e-05
9.16948e-05
9.13325e-05
9.09712e-05
9.0611e-05
9.02519e-05
8.98938e-05
8.95368e-05
8.91809e-05
8.88261e-05
8.84725e-05
8.81199e-05
8.77684e-05
8.7418e-05
8.70686e-05
8.67203e-05
8.63731e-05
8.60268e-05
8.56815e-05
8.53372e-05
8.49937e-05
8.46512e-05
8.43096e-05
8.39688e-05
8.36289e-05
8.32899e-05
8.29518e-05
8.26147e-05
8.22788e-05
8.19443e-05
8.16116e-05
8.1281e-05
8.09533e-05
8.06292e-05
8.03099e-05
7.99968e-05
7.96916e-05
7.93964e-05
7.91138e-05
7.88466e-05
7.85981e-05
7.83718e-05
7.8171e-05
7.79992e-05
7.78591e-05
7.77526e-05
7.76808e-05
7.76429e-05
7.76369e-05
7.7659e-05
7.77042e-05
7.77665e-05
7.7839e-05
7.79149e-05
7.79879e-05
7.80521e-05
7.81026e-05
7.81358e-05
7.81489e-05
7.81401e-05
7.81085e-05
7.80536e-05
7.79767e-05
7.78774e-05
7.77106e-05
4.20081e-06
4.41648e-06
4.63925e-06
4.9815e-06
5.5132e-06
6.31465e-06
7.44931e-06
8.93722e-06
1.07474e-05
1.28078e-05
1.5026e-05
1.7314e-05
1.96078e-05
2.1873e-05
2.40977e-05
2.62798e-05
2.84184e-05
3.05157e-05
3.25764e-05
3.46076e-05
3.66188e-05
3.86197e-05
4.06194e-05
4.26251e-05
4.46413e-05
4.66691e-05
4.8706e-05
5.07461e-05
5.27814e-05
5.48025e-05
5.67992e-05
5.87616e-05
6.068e-05
6.25458e-05
6.43513e-05
6.60908e-05
6.77592e-05
6.93525e-05
7.08679e-05
7.23049e-05
7.36636e-05
7.49442e-05
7.61478e-05
7.72765e-05
7.8334e-05
7.93243e-05
8.02505e-05
8.11149e-05
8.19208e-05
8.26726e-05
8.3375e-05
8.40326e-05
8.46501e-05
8.52319e-05
8.57805e-05
8.6298e-05
8.67258e-05
8.67744e-05
8.67494e-05
8.66771e-05
8.65886e-05
8.65286e-05
8.64749e-05
8.64185e-05
8.63575e-05
8.63073e-05
8.62795e-05
8.62737e-05
8.62859e-05
8.63138e-05
8.63564e-05
8.64167e-05
8.64993e-05
8.6606e-05
8.67359e-05
8.68877e-05
8.70593e-05
8.72482e-05
8.74547e-05
8.76808e-05
8.79273e-05
8.81944e-05
8.84807e-05
8.87834e-05
8.9101e-05
8.94332e-05
8.97796e-05
9.01399e-05
9.05148e-05
9.09041e-05
9.13058e-05
9.17177e-05
9.21392e-05
9.25693e-05
9.30063e-05
9.34492e-05
9.38981e-05
9.43523e-05
9.48097e-05
9.52694e-05
9.57308e-05
9.61917e-05
9.66504e-05
9.7107e-05
9.75602e-05
9.80077e-05
9.84495e-05
9.88858e-05
9.93142e-05
9.97351e-05
0.000100151
0.00010056
0.000100965
0.000101372
0.00010178
0.000102195
0.000102626
0.000103079
0.000103561
0.000104086
0.000104659
0.000105288
0.000105979
0.000106709
0.00010749
0.000108302
0.000109105
0.000109877
0.00011059
0.000111246
0.000111853
0.000112033
0.000112134
0.000112226
0.00011231
0.000112389
0.00011246
0.000112524
0.000112581
0.000112633
0.000112681
0.000112726
0.000112765
0.000112798
0.000112824
0.000112843
0.000112854
0.000112858
0.000112853
0.000112841
0.00011282
0.000112791
0.000112754
0.00011271
0.000112657
0.000112596
0.000112527
0.000112451
0.000112367
0.000112275
0.000112175
0.000112068
0.000111953
0.000111831
0.000111702
0.000111566
0.000111422
0.000111271
0.000111114
0.000110949
0.000110778
0.000110601
0.000110416
0.000110226
0.000110029
0.000109826
0.000109618
0.000109403
0.000109183
0.000108956
0.000108725
0.000108488
0.000108245
0.000107998
0.000107745
0.000107487
0.000107225
0.000106957
0.000106685
0.000106408
0.000106127
0.000105841
0.000105551
0.000105256
0.000104958
0.000104655
0.000104349
0.000104039
0.000103725
0.000103408
0.000103087
0.000102763
0.000102436
0.000102107
0.000101774
0.000101439
0.000101102
0.000100762
0.00010042
0.000100076
9.97306e-05
9.93833e-05
9.90345e-05
9.86844e-05
9.83331e-05
9.79808e-05
9.76275e-05
9.72735e-05
9.69188e-05
9.65635e-05
9.62079e-05
9.5852e-05
9.54959e-05
9.51398e-05
9.47836e-05
9.44276e-05
9.40719e-05
9.37164e-05
9.33613e-05
9.30067e-05
9.26526e-05
9.2299e-05
9.19462e-05
9.1594e-05
9.12426e-05
9.0892e-05
9.05422e-05
9.01933e-05
8.98453e-05
8.94982e-05
8.9152e-05
8.88068e-05
8.84626e-05
8.81194e-05
8.77771e-05
8.74359e-05
8.70956e-05