/*--------------------------------*- C++ -*----------------------------------*\
| =========                 |                                                 |
| \\      /  F ield         | OpenFOAM: The Open Source CFD Toolbox           |
|  \\    /   O peration     | Version:  2306                                  |
|   \\  /    A nd           | Website:  www.openfoam.com                      |
|    \\/     M anipulation  |                                                 |
\*---------------------------------------------------------------------------*/
FoamFile
{
    version     2.0;
    format      ascii;
    arch        "LSB;label=32;scalar=64";
    class       volScalarField;
    location    "1500";
    object      omega;
}
// * * * * * * * * * * * * * * * * * * * * * * * * * * * * * * * * * * * * * //

dimensions      [0 0 -1 0 0 0 0];

internalField   nonuniform List<scalar> 
25600
(
5751.85
6076.67
6315.6
6467.94
6550.12
6581.9
6580.15
6557.36
6522.13
6480.05
6434.58
6387.86
6341.47
6296
6251.74
6208.97
6168.17
6129.86
6093.94
6060.16
6028.55
5999.29
5972.68
5948.91
5928.06
5910.16
5895.17
5882.95
5873.26
5865.79
5860.23
5856.26
5853.63
5852.12
5851.61
5852.01
5853.35
5855.44
5859.59
5861.72
461.229
947.052
1325.57
1613.02
1821.72
1965.38
2059.13
2117.3
2151.94
2172.32
2185.05
2195.16
2205.04
2216.16
2228.73
2243.57
2263.93
2295.89
2344.99
2410.32
2483.87
2547.7
2599.41
2640.11
2671.2
2693.79
2708.75
2716.87
2719.31
2717.12
2711.16
2702.16
2690.7
2677.22
2662.05
2645.32
2627.63
2609.41
2585.63
2578.76
164.919
208.242
269.235
334.67
397.991
456.045
507.45
551.885
589.712
621.725
648.911
672.286
692.859
712.042
733.026
758.267
788.052
821.017
857.051
896.833
940.359
986.068
1032.15
1077.5
1120.54
1159.51
1195.99
1228.14
1256.14
1280.41
1301.26
1318.96
1333.69
1345.65
1354.99
1361.84
1366.33
1368.33
1368.27
1361.56
158.659
159.411
165.311
175.409
188.188
202.402
217.14
231.774
245.894
259.232
271.646
283.142
293.763
303.695
313.572
324.017
335.275
347.263
359.825
372.954
386.744
401.285
416.63
432.508
449.97
472.061
498.109
526.029
554.276
582.026
608.882
634.72
659.211
681.93
701.988
719.301
734.453
747.725
759.557
767.698
159.002
157.169
156.129
156.296
157.737
160.294
163.716
167.741
172.144
176.74
181.383
185.973
190.443
194.752
198.913
202.981
207.028
211.093
215.226
219.446
223.768
228.214
232.831
237.586
242.786
249.259
256.991
265.66
274.988
284.776
294.88
305.207
315.668
326.247
337.989
351.237
365.398
379.686
393.655
406.093
159.052
157.179
155.414
153.889
152.736
152.035
151.802
152.006
152.589
153.479
154.605
155.901
157.311
158.788
160.298
161.816
163.332
164.844
166.357
167.876
169.407
170.953
172.525
174.124
175.768
177.533
179.496
181.697
184.144
186.829
189.731
192.829
196.097
199.53
203.48
208.112
213.294
218.802
224.421
229.877
159.053
157.192
155.38
153.632
151.987
150.485
149.163
148.046
147.142
146.446
145.944
145.616
145.436
145.381
145.427
145.552
145.738
145.972
146.243
146.544
146.87
147.216
147.581
147.963
148.362
148.782
149.235
149.736
150.3
150.938
151.656
152.457
153.34
154.3
155.356
156.541
157.874
159.347
160.919
162.574
159.051
157.19
155.375
153.606
151.888
150.23
148.645
147.148
145.75
144.461
143.286
142.225
141.274
140.429
139.68
139.019
138.434
137.917
137.459
137.052
136.689
136.363
136.071
135.807
135.568
135.353
135.16
134.991
134.847
134.734
134.654
134.61
134.604
134.638
134.71
134.823
134.982
135.188
135.432
135.713
159.05
157.187
155.37
153.598
151.87
150.187
148.55
146.963
145.431
143.958
142.548
141.206
139.933
138.731
137.599
136.535
135.536
134.599
133.719
132.893
132.115
131.381
130.688
130.031
129.407
128.813
128.247
127.707
127.191
126.7
126.233
125.791
125.374
124.982
124.614
124.271
123.952
123.655
123.376
123.114
159.049
157.184
155.365
153.591
151.861
150.173
148.527
146.922
145.358
143.836
142.358
140.924
139.537
138.197
136.906
135.663
134.469
133.323
132.223
131.169
130.158
129.189
128.258
127.364
126.504
125.676
124.878
124.109
123.366
122.649
121.955
121.286
120.639
120.014
119.41
118.827
118.263
117.716
117.186
116.667
159.048
157.183
155.362
153.586
151.854
150.164
148.515
146.906
145.335
143.801
142.304
140.845
139.422
138.036
136.687
135.375
134.101
132.864
131.664
130.5
129.372
128.278
127.219
126.192
125.197
124.231
123.295
122.386
121.504
120.647
119.814
119.005
118.218
117.452
116.708
115.983
115.277
114.588
113.915
113.255
159.048
157.181
155.359
153.582
151.848
150.156
148.506
146.894
145.32
143.783
142.281
140.814
139.38
137.98
136.612
135.276
133.972
132.699
131.458
130.247
129.066
127.914
126.792
125.698
124.632
123.593
122.58
121.592
120.629
119.69
118.773
117.88
117.008
116.156
115.325
114.514
113.721
112.945
112.186
111.442
159.048
157.179
155.356
153.576
151.841
150.147
148.494
146.88
145.304
143.764
142.259
140.789
139.351
137.945
136.571
135.226
133.912
132.626
131.368
130.138
128.935
127.759
126.609
125.484
124.384
123.308
122.256
121.227
120.221
119.237
118.274
117.332
116.411
115.51
114.628
113.764
112.919
112.091
111.28
110.484
159.046
157.175
155.348
153.566
151.827
150.131
148.475
146.858
145.278
143.735
142.228
140.754
139.313
137.904
136.526
135.177
133.858
132.567
131.302
130.065
128.853
127.667
126.504
125.366
124.251
123.158
122.088
121.039
120.012
119.005
118.018
117.051
116.104
115.175
114.265
113.372
112.497
111.639
110.796
109.969
159.043
157.166
155.333
153.545
151.801
150.099
148.438
146.816
145.232
143.686
142.174
140.697
139.253
137.84
136.459
135.108
133.785
132.491
131.223
129.982
128.766
127.575
126.408
125.264
124.143
123.043
121.965
120.908
119.871
118.853
117.856
116.877
115.916
114.974
114.049
113.141
112.25
111.375
110.516
109.672
159.037
157.149
155.306
153.508
151.755
150.046
148.377
146.749
145.16
143.607
142.091
140.609
139.161
137.745
136.361
135.007
133.682
132.385
131.115
129.872
128.654
127.461
126.292
125.146
124.022
122.92
121.839
120.778
119.737
118.716
117.714
116.73
115.764
114.816
113.885
112.97
112.072
111.19
110.323
109.47
159.029
157.125
155.268
153.458
151.693
149.973
148.295
146.658
145.061
143.502
141.98
140.493
139.04
137.621
136.233
134.875
133.548
132.249
130.978
129.733
128.514
127.32
126.15
125.003
123.879
122.776
121.694
120.633
119.592
118.57
117.567
116.582
115.615
114.665
113.732
112.816
111.915
111.03
110.16
109.304
159.02
157.098
155.224
153.399
151.621
149.889
148.201
146.555
144.949
143.383
141.855
140.362
138.905
137.481
136.09
134.73
133.4
132.099
130.827
129.581
128.361
127.167
125.997
124.85
123.726
122.623
121.542
120.482
119.441
118.42
117.417
116.433
115.466
114.517
113.584
112.668
111.768
110.883
110.013
109.157
159.01
157.071
155.181
153.342
151.552
149.809
148.111
146.457
144.845
143.272
141.738
140.242
138.78
137.354
135.96
134.598
133.266
131.964
130.69
129.444
128.224
127.029
125.859
124.712
123.589
122.487
121.407
120.347
119.308
118.287
117.286
116.303
115.337
114.389
113.458
112.543
111.643
110.759
109.89
109.035
159.002
157.049
155.148
153.3
151.502
149.752
148.049
146.39
144.774
143.198
141.662
140.162
138.699
137.271
135.875
134.512
133.18
131.877
130.603
129.356
128.136
126.942
125.772
124.626
123.502
122.401
121.322
120.263
119.224
118.204
117.204
116.221
115.257
114.31
113.379
112.465
111.567
110.684
109.815
108.962
159.002
157.049
155.148
153.3
151.502
149.752
148.049
146.39
144.774
143.198
141.662
140.162
138.699
137.271
135.875
134.512
133.18
131.877
130.603
129.356
128.136
126.942
125.772
124.626
123.502
122.401
121.322
120.263
119.224
118.204
117.204
116.222
115.257
114.31
113.379
112.465
111.567
110.684
109.816
108.962
159.01
157.071
155.181
153.342
151.552
149.809
148.111
146.457
144.845
143.272
141.738
140.242
138.78
137.354
135.96
134.598
133.266
131.964
130.69
129.444
128.224
127.029
125.859
124.712
123.589
122.487
121.407
120.347
119.307
118.287
117.286
116.303
115.337
114.389
113.458
112.543
111.643
110.76
109.891
109.036
159.02
157.098
155.224
153.399
151.621
149.889
148.201
146.555
144.949
143.383
141.855
140.362
138.905
137.481
136.09
134.73
133.4
132.099
130.827
129.581
128.361
127.167
125.996
124.85
123.725
122.623
121.542
120.481
119.441
118.419
117.417
116.432
115.466
114.516
113.584
112.668
111.767
110.882
110.012
109.157
159.029
157.125
155.268
153.458
151.693
149.973
148.295
146.658
145.061
143.502
141.98
140.493
139.04
137.62
136.233
134.875
133.548
132.249
130.978
129.733
128.514
127.32
126.15
125.003
123.879
122.776
121.694
120.633
119.592
118.569
117.566
116.581
115.614
114.664
113.731
112.814
111.913
111.028
110.158
109.303
159.037
157.149
155.306
153.508
151.755
150.046
148.377
146.749
145.16
143.607
142.091
140.609
139.161
137.745
136.361
135.007
133.682
132.385
131.115
129.872
128.654
127.461
126.292
125.145
124.021
122.919
121.838
120.777
119.737
118.715
117.713
116.729
115.762
114.814
113.882
112.967
112.069
111.186
110.319
109.467
159.043
157.166
155.333
153.545
151.801
150.099
148.438
146.816
145.232
143.686
142.174
140.697
139.253
137.84
136.459
135.108
133.785
132.491
131.223
129.982
128.766
127.575
126.408
125.264
124.142
123.043
121.964
120.907
119.87
118.852
117.854
116.875
115.914
114.971
114.046
113.137
112.246
111.371
110.513
109.67
159.046
157.175
155.348
153.566
151.827
150.131
148.475
146.858
145.278
143.735
142.228
140.754
139.313
137.904
136.526
135.177
133.858
132.566
131.302
130.065
128.853
127.666
126.504
125.366
124.25
123.158
122.087
121.038
120.011
119.004
118.017
117.049
116.101
115.172
114.262
113.369
112.495
111.637
110.796
109.973
159.048
157.179
155.356
153.576
151.841
150.147
148.494
146.88
145.304
143.764
142.259
140.789
139.351
137.945
136.571
135.226
133.911
132.626
131.368
130.138
128.935
127.759
126.608
125.483
124.383
123.307
122.255
121.226
120.22
119.235
118.273
117.331
116.41
115.509
114.627
113.765
112.922
112.097
111.291
110.502
159.048
157.181
155.359
153.582
151.848
150.156
148.506
146.894
145.32
143.783
142.281
140.814
139.38
137.98
136.612
135.276
133.972
132.699
131.458
130.247
129.066
127.914
126.792
125.698
124.632
123.592
122.579
121.591
120.628
119.689
118.774
117.881
117.01
116.16
115.332
114.524
113.736
112.968
112.22
111.492
159.048
157.183
155.362
153.586
151.854
150.164
148.515
146.906
145.334
143.801
142.304
140.845
139.422
138.036
136.687
135.375
134.101
132.864
131.663
130.499
129.371
128.278
127.219
126.192
125.197
124.231
123.295
122.387
121.505
120.649
119.818
119.011
118.227
117.465
116.726
116.01
115.315
114.642
113.991
113.362
159.049
157.184
155.365
153.591
151.861
150.173
148.527
146.922
145.358
143.836
142.358
140.924
139.537
138.197
136.905
135.663
134.469
133.323
132.223
131.169
130.158
129.189
128.258
127.364
126.505
125.677
124.88
124.112
123.371
122.656
121.966
121.3
120.659
120.043
119.451
118.883
118.341
117.824
117.335
116.873
159.05
157.187
155.37
153.598
151.87
150.187
148.55
146.963
145.431
143.958
142.548
141.206
139.933
138.731
137.599
136.535
135.536
134.599
133.719
132.893
132.115
131.382
130.689
130.033
129.41
128.817
128.253
127.715
127.202
126.716
126.255
125.821
125.415
125.038
124.692
124.377
124.097
123.853
123.65
123.491
159.051
157.19
155.375
153.606
151.888
150.23
148.645
147.148
145.75
144.461
143.286
142.225
141.274
140.429
139.68
139.019
138.434
137.917
137.459
137.053
136.69
136.365
136.073
135.811
135.574
135.361
135.171
135.006
134.868
134.763
134.694
134.664
134.679
134.739
134.849
135.015
135.246
135.552
135.941
136.418
159.053
157.192
155.38
153.632
151.987
150.485
149.163
148.046
147.142
146.446
145.944
145.616
145.436
145.381
145.427
145.552
145.738
145.973
146.244
146.546
146.872
147.22
147.586
147.971
148.373
148.797
149.255
149.764
150.338
150.99
151.728
152.557
153.479
154.492
155.626
156.928
158.427
160.136
162.053
164.168
159.052
157.179
155.414
153.889
152.736
152.035
151.801
152.006
152.589
153.479
154.605
155.901
157.311
158.788
160.298
161.816
163.333
164.845
166.359
167.879
169.411
170.96
172.534
174.138
175.787
177.561
179.537
181.756
184.229
186.949
189.901
193.07
196.433
200.022
204.244
209.259
214.949
221.153
227.738
234.616
159.002
157.169
156.129
156.296
157.737
160.294
163.716
167.741
172.144
176.74
181.383
185.973
190.443
194.753
198.913
202.982
207.03
211.096
215.231
219.454
223.78
228.23
232.855
237.62
242.842
249.351
257.129
265.86
275.274
285.18
295.447
306.003
316.771
327.83
340.372
354.666
370.098
386.05
402.121
418.119
158.659
159.411
165.311
175.409
188.188
202.402
217.14
231.774
245.894
259.233
271.646
283.143
293.765
303.697
313.576
324.023
335.285
347.277
359.845
372.984
386.788
401.349
416.725
432.641
450.189
472.411
498.608
526.705
555.169
583.197
610.412
636.721
661.789
685.185
706.018
724.39
740.988
756.361
770.719
784.483
164.919
208.242
269.235
334.67
397.991
456.046
507.451
551.886
589.714
621.728
648.915
672.291
692.867
712.053
733.043
758.293
788.089
821.068
857.125
896.941
940.512
986.283
1032.45
1077.9
1121.06
1160.19
1196.87
1229.27
1257.59
1282.24
1303.59
1321.88
1337.35
1350.25
1360.76
1369.09
1375.43
1380.08
1383.16
1385.75
461.229
947.052
1325.57
1613.02
1821.72
1965.38
2059.13
2117.31
2151.95
2172.33
2185.06
2195.17
2205.05
2216.19
2228.76
2243.62
2264
2296
2345.17
2410.59
2484.23
2548.19
2600.07
2640.98
2672.33
2695.24
2710.6
2719.21
2722.28
2720.9
2715.96
2708.27
2698.52
2687.29
2675.05
2662.2
2649.06
2635.86
2622.88
2609.66
5751.85
6076.67
6315.6
6467.94
6550.12
6581.9
6580.15
6557.36
6522.13
6480.04
6434.58
6387.86
6341.46
6295.99
6251.72
6208.95
6168.14
6129.81
6093.87
6060.06
6028.41
5999.1
5972.42
5948.56
5927.59
5909.53
5894.36
5881.9
5871.91
5864.06
5858
5853.4
5849.94
5847.36
5845.42
5843.94
5842.78
5841.79
5840.85
5839.85
4311.99
3247.23
2642.6
2279.72
2024
1823.45
1659.04
1521.75
1405.66
1306.28
1220.27
1145.09
1078.77
1019.81
967.03
919.537
876.592
837.596
802.048
769.522
739.668
712.197
686.865
663.458
641.79
621.692
603.019
585.64
569.438
554.306
540.151
526.886
514.432
502.718
491.68
481.258
471.398
462.052
453.175
444.727
436.671
428.973
421.604
414.534
407.741
401.202
394.897
388.808
382.92
377.218
371.689
366.32
361.104
356.027
351.086
346.274
341.585
337.011
332.548
328.194
323.949
319.809
315.77
311.827
307.976
304.214
300.539
296.944
293.429
289.99
286.623
283.327
280.1
276.938
273.839
270.802
267.823
264.901
262.035
259.222
256.46
253.749
251.085
248.468
245.896
243.368
240.882
238.438
236.033
233.667
231.339
229.046
226.789
224.566
222.376
220.219
218.093
215.997
213.931
211.895
209.886
207.904
205.95
204.021
202.117
200.237
198.38
196.545
194.733
192.941
191.17
189.418
187.685
185.972
184.276
182.599
180.94
179.299
177.678
176.076
174.495
172.936
171.4
169.886
168.395
166.927
165.48
164.054
162.649
161.264
159.898
158.551
157.221
155.909
154.615
153.336
152.073
150.825
149.591
148.37
147.161
145.963
144.775
143.597
142.429
141.27
140.122
138.983
137.854
136.736
135.627
134.529
133.44
132.361
131.292
130.233
129.183
128.142
127.112
126.09
125.078
124.075
123.081
122.096
121.121
120.154
119.196
118.248
117.308
116.378
115.456
114.543
113.638
112.743
111.856
110.978
110.109
109.248
108.396
107.553
106.718
105.891
105.073
104.264
103.463
102.67
101.886
101.11
100.343
99.583
98.8317
98.0885
97.3534
96.6262
95.9071
95.1958
94.4924
93.7968
93.1089
92.4286
91.756
91.0909
90.4333
89.7831
89.1403
88.5047
87.8764
87.2552
86.6411
86.034
85.4339
84.8406
84.2542
83.6745
83.1015
82.5351
81.9752
81.4218
80.8748
80.3342
79.7999
79.2718
78.7499
78.234
77.7243
77.2205
76.7226
76.2306
75.7444
75.2639
74.7892
74.3201
73.8565
73.3986
72.9461
72.499
72.0573
71.621
71.1899
70.764
70.3434
69.9279
69.5174
69.112
68.7116
68.3161
67.9256
67.5398
67.1589
66.7828
66.4113
66.0446
65.6825
65.3249
64.9719
64.6234
64.2793
63.9396
63.6042
63.2732
62.9464
62.6238
62.3054
61.9911
61.6809
61.3746
61.0723
60.774
60.4795
60.1888
59.9019
59.6188
59.3394
59.0637
58.7917
58.5235
58.259
57.9983
57.7415
57.4886
57.2397
56.9949
56.7543
56.5179
56.2859
56.0582
55.835
55.6162
55.4018
55.1918
54.9861
54.7847
54.5875
54.3943
54.2053
54.0201
53.8392
53.6596
53.4991
53.2455
2429.29
2265.59
2134.46
2027.22
1923.77
1814
1699.08
1585.17
1477.75
1379.65
1291.45
1212.49
1141.75
1078.24
1021.07
969.459
922.721
880.261
841.568
806.198
773.772
743.969
716.511
691.157
667.695
645.938
625.721
606.899
589.341
572.933
557.574
543.17
529.638
516.904
504.9
493.563
482.838
472.673
463.022
453.842
445.095
436.744
428.758
421.108
413.767
406.714
399.924
393.379
387.062
380.956
375.048
369.326
363.778
358.393
353.162
348.078
343.134
338.327
333.655
329.114
324.7
320.407
316.228
312.16
308.197
304.335
300.569
296.894
293.308
289.806
286.385
283.043
279.776
276.581
273.455
270.395
267.399
264.466
261.592
258.775
256.014
253.305
250.648
248.041
245.481
242.967
240.498
238.072
235.688
233.344
231.038
228.77
226.538
224.341
222.179
220.049
217.952
215.886
213.85
211.844
209.867
207.917
205.995
204.099
202.228
200.382
198.56
196.761
194.984
193.229
191.494
189.779
188.084
186.407
184.748
183.106
181.481
179.871
178.279
176.702
175.142
173.599
172.074
170.568
169.081
167.614
166.168
164.74
163.333
161.946
160.576
159.224
157.89
156.573
155.272
153.986
152.716
151.459
150.216
148.984
147.764
146.553
145.352
144.16
142.978
141.806
140.644
139.492
138.35
137.219
136.098
134.986
133.885
132.794
131.712
130.64
129.578
128.525
127.482
126.449
125.424
124.409
123.404
122.407
121.42
120.442
119.473
118.513
117.562
116.62
115.688
114.764
113.849
112.943
112.046
111.157
110.278
109.407
108.546
107.692
106.848
106.012
105.185
104.367
103.557
102.756
101.963
101.178
100.402
99.6348
98.8755
98.1245
97.3816
96.6469
95.9203
95.2017
94.4911
93.7884
93.0936
92.4065
91.7272
91.0555
90.3915
89.7349
89.0858
88.4442
87.8098
87.1827
86.5628
85.9499
85.3442
84.7454
84.1535
83.5684
82.9902
82.4186
81.8536
81.2952
80.7434
80.1979
79.6588
79.126
78.5995
78.0791
77.5649
77.0567
76.5545
76.0582
75.5678
75.0832
74.6044
74.1313
73.6639
73.202
72.7457
72.2949
71.8495
71.4096
70.9749
70.5455
70.1214
69.7025
69.2887
68.88
68.4763
68.0777
67.684
67.2952
66.9112
66.5321
66.1577
65.7881
65.4231
65.0628
64.7071
64.3559
64.0091
63.6669
63.329
62.9955
62.6663
62.3413
62.0205
61.7039
61.3914
61.083
60.7786
60.4781
60.1816
59.8889
59.6001
59.3151
59.0339
58.7564
58.4827
58.2128
57.9467
57.6845
57.4262
57.1718
56.9215
56.6754
56.4334
56.1958
55.9625
55.7336
55.5091
55.2891
55.0735
54.8623
54.6555
54.4529
54.2546
54.0604
53.8703
53.684
53.5021
53.3214
53.16
52.9048
1362.5
1360.35
1356.74
1359.09
1370.34
1385.68
1395.68
1391.56
1369.34
1330.48
1279.83
1223.03
1164.67
1107.68
1053.58
1002.96
955.98
912.581
872.593
835.765
801.827
770.516
741.591
714.829
690.028
667.002
645.582
625.618
606.974
589.532
573.184
557.836
543.402
529.806
516.977
504.852
493.375
482.495
472.162
462.333
452.967
444.03
435.488
427.311
419.471
411.945
404.71
397.744
391.029
384.548
378.288
372.233
366.374
360.697
355.193
349.852
344.668
339.64
334.765
330.038
325.452
321
316.674
312.472
308.388
304.416
300.55
296.785
293.119
289.547
286.065
282.669
279.355
276.121
272.961
269.875
266.859
263.909
261.025
258.202
255.439
252.732
250.08
247.48
244.932
242.432
239.98
237.573
235.209
232.886
230.604
228.36
226.154
223.984
221.849
219.748
217.68
215.643
213.637
211.662
209.715
207.797
205.906
204.042
202.204
200.39
198.6
196.833
195.09
193.368
191.667
189.987
188.327
186.685
185.061
183.455
181.865
180.29
178.731
177.186
175.656
174.139
172.636
171.148
169.674
168.217
166.775
165.35
163.942
162.551
161.177
159.82
158.48
157.156
155.846
154.551
153.27
152.003
150.747
149.503
148.268
147.042
145.826
144.619
143.423
142.237
141.061
139.896
138.742
137.597
136.464
135.34
134.227
133.123
132.029
130.946
129.872
128.808
127.753
126.708
125.672
124.646
123.629
122.622
121.624
120.635
119.656
118.686
117.725
116.773
115.83
114.897
113.973
113.057
112.151
111.254
110.366
109.486
108.616
107.755
106.902
106.059
105.224
104.398
103.581
102.772
101.972
101.181
100.398
99.6234
98.8575
98.1
97.3509
96.61
95.8774
95.1529
94.4365
93.7281
93.0277
92.3352
91.6505
90.9736
90.3044
89.6428
88.9887
88.3422
87.703
87.0712
86.4467
85.8294
85.2191
84.616
84.0198
83.4305
82.8481
82.2724
81.7035
81.1412
80.5854
80.0361
79.4933
78.9568
78.4266
77.9026
77.3849
76.8732
76.3675
75.8679
75.3742
74.8863
74.4043
73.928
73.4574
72.9925
72.5331
72.0793
71.631
71.188
70.7505
70.3183
69.8914
69.4697
69.0532
68.6418
68.2355
67.8342
67.4379
67.0466
66.6602
66.2786
65.9018
65.5298
65.1624
64.7998
64.4418
64.0883
63.7394
63.3949
63.0549
62.7193
62.388
62.061
61.7382
61.4197
61.1052
60.7949
60.4886
60.1863
59.888
59.5936
59.3031
59.0164
58.7336
58.4546
58.1794
57.908
57.6405
57.3769
57.1172
56.8615
56.6098
56.3624
56.1191
55.8802
55.6456
55.4155
55.1898
54.9685
54.7517
54.5392
54.3312
54.1274
53.9279
53.7325
53.5412
53.3538
53.1707
52.9888
52.8265
52.5694
777.82
788.4
798.55
809.95
825.872
849.611
883.068
925.123
971.072
1013.75
1045.91
1062.63
1062.59
1047.77
1022.1
989.856
954.529
918.466
883.049
848.968
816.574
786.027
757.364
730.543
705.475
682.049
660.143
639.637
620.419
602.382
585.43
569.474
554.433
540.235
526.813
514.107
502.064
490.632
479.764
469.417
459.552
450.134
441.131
432.512
424.251
416.322
408.704
401.375
394.317
387.51
380.942
374.596
368.462
362.528
356.782
351.214
345.817
340.584
335.516
330.608
325.85
321.239
316.768
312.431
308.223
304.138
300.169
296.314
292.567
288.924
285.38
281.931
278.571
275.298
272.108
268.998
265.964
263.003
260.112
257.287
254.526
251.826
249.184
246.599
244.068
241.589
239.158
236.776
234.438
232.143
229.89
227.677
225.503
223.365
221.263
219.195
217.161
215.159
213.188
211.248
209.336
207.454
205.598
203.769
201.965
200.185
198.43
196.697
194.987
193.3
191.633
189.987
188.361
186.754
185.165
183.593
182.038
180.499
178.975
177.465
175.968
174.484
173.011
171.551
170.101
168.664
167.238
165.825
164.424
163.036
161.661
160.301
158.954
157.621
156.302
154.995
153.702
152.42
151.149
149.889
148.638
147.396
146.164
144.943
143.733
142.534
141.345
140.168
139.002
137.846
136.701
135.566
134.441
133.327
132.223
131.128
130.044
128.969
127.904
126.849
125.803
124.768
123.741
122.725
121.717
120.72
119.731
118.753
117.783
116.823
115.872
114.931
113.999
113.076
112.163
111.258
110.363
109.477
108.6
107.732
106.874
106.024
105.183
104.351
103.528
102.714
101.909
101.112
100.324
99.5451
98.7744
98.0122
97.2585
96.5131
95.7761
95.0473
94.3267
93.6143
92.9099
92.2135
91.525
90.8444
90.1715
89.5063
88.8488
88.1988
87.5563
86.9212
86.2934
85.6729
85.0596
84.4533
83.8541
83.2619
82.6766
82.098
81.5263
80.9611
80.4026
79.8507
79.3052
78.7661
78.2333
77.7068
77.1865
76.6724
76.1643
75.6622
75.1661
74.6759
74.1916
73.713
73.2401
72.7729
72.3114
71.8554
71.4049
70.9598
70.5202
70.0859
69.6569
69.2331
68.8146
68.4012
67.9929
67.5897
67.1915
66.7983
66.4099
66.0265
65.6479
65.274
64.9049
64.5405
64.1807
63.8255
63.4748
63.1287
62.787
62.4497
62.1168
61.7882
61.4638
61.1437
60.8277
60.5159
60.2081
59.9043
59.6046
59.3088
59.0169
58.7289
58.4447
58.1644
57.888
57.6153
57.3466
57.0818
56.8209
56.5641
56.3113
56.0627
55.8183
55.5782
55.3425
55.1112
54.8843
54.6619
54.4439
54.2303
54.0211
53.8161
53.6154
53.4189
53.2264
53.0379
52.8537
52.6706
52.5074
52.2484
418.513
428.463
436.654
444.826
454.032
465.509
480.979
502.547
532.269
571.351
619.195
672.786
726.983
775.767
813.893
838.283
848.548
846.513
835.207
817.789
796.871
774.287
751.195
728.281
705.948
684.442
663.868
644.273
625.662
608.008
591.269
575.396
560.338
546.046
532.473
519.575
507.305
495.62
484.481
473.849
463.692
453.978
444.679
435.768
427.219
419.01
411.12
403.528
396.217
389.17
382.372
375.807
369.466
363.335
357.404
351.663
346.103
340.714
335.49
330.428
325.52
320.767
316.163
311.702
307.376
303.183
299.119
295.179
291.357
287.649
284.048
280.55
277.151
273.847
270.634
267.509
264.466
261.503
258.614
255.797
253.048
250.366
247.746
245.187
242.684
240.236
237.84
235.493
233.193
230.938
228.726
226.554
224.422
222.328
220.269
218.246
216.256
214.298
212.372
210.476
208.609
206.77
204.958
203.171
201.408
199.669
197.954
196.261
194.59
192.941
191.313
189.705
188.116
186.545
184.993
183.457
181.937
180.434
178.946
177.471
176.01
174.561
173.123
171.695
170.278
168.869
167.469
166.078
164.695
163.321
161.956
160.601
159.254
157.917
156.59
155.272
153.965
152.666
151.378
150.1
148.832
147.575
146.33
145.096
143.875
142.665
141.467
140.279
139.103
137.938
136.783
135.639
134.506
133.382
132.269
131.166
130.073
128.99
127.917
126.854
125.801
124.758
123.724
122.7
121.686
120.682
119.687
118.702
117.726
116.76
115.804
114.857
113.919
112.991
112.073
111.164
110.264
109.373
108.492
107.62
106.757
105.904
105.059
104.224
103.397
102.58
101.771
100.972
100.181
99.3985
98.625
97.86
97.1037
96.3558
95.6163
94.8851
94.1622
93.4475
92.741
92.0424
91.3519
90.6692
89.9943
89.3272
88.6678
88.0159
87.3716
86.7347
86.1052
85.483
84.8679
84.26
83.6592
83.0654
82.4784
81.8983
81.325
80.7583
80.1983
79.6449
79.0979
78.5573
78.0231
77.4952
76.9734
76.4579
75.9484
75.445
74.9475
74.4559
73.9702
73.4902
73.016
72.5475
72.0846
71.6273
71.1754
70.7291
70.2881
69.8525
69.4222
68.9972
68.5774
68.1627
67.7532
67.3487
66.9492
66.5547
66.1652
65.7805
65.4006
65.0255
64.6552
64.2895
63.9285
63.5721
63.2203
62.8729
62.5301
62.1916
61.8575
61.5277
61.2022
60.881
60.5639
60.2509
59.942
59.6372
59.3364
59.0395
58.7466
58.4575
58.1724
57.8911
57.6136
57.34
57.0704
56.8046
56.5428
56.285
56.0313
55.7817
55.5363
55.2952
55.0585
54.8261
54.5982
54.3747
54.1556
53.9409
53.7305
53.5245
53.3226
53.125
52.9314
52.7417
52.5564
52.3721
52.2081
51.9471
234.811
241.401
248.622
254.727
260.15
265.57
271.601
278.955
288.596
301.729
319.795
344.299
376.333
416.046
462.185
511.783
560.797
604.983
640.898
666.601
681.837
687.74
686.205
679.285
668.779
656.067
642.113
627.552
612.793
598.103
583.656
569.564
555.894
542.686
529.956
517.716
505.949
494.636
483.765
473.321
463.285
453.64
444.369
435.453
426.874
418.615
410.66
402.994
395.602
388.47
381.585
374.934
368.506
362.292
356.282
350.465
344.834
339.378
334.087
328.955
323.974
319.141
314.454
309.909
305.504
301.235
297.102
293.099
289.22
285.459
281.813
278.28
274.856
271.535
268.312
265.183
262.143
259.187
256.313
253.517
250.796
248.145
245.562
243.042
240.582
238.18
235.833
233.537
231.291
229.09
226.933
224.818
222.743
220.706
218.705
216.739
214.808
212.908
211.04
209.203
207.394
205.611
203.854
202.12
200.41
198.722
197.057
195.414
193.792
192.19
190.608
189.045
187.5
185.971
184.46
182.964
181.485
180.02
178.57
177.134
175.71
174.297
172.895
171.502
170.119
168.743
167.375
166.013
164.657
163.306
161.961
160.62
159.284
157.954
156.628
155.307
153.991
152.682
151.379
150.085
148.804
147.537
146.283
145.042
143.814
142.597
141.393
140.199
139.017
137.846
136.685
135.535
134.396
133.267
132.148
131.04
129.942
128.853
127.775
126.708
125.65
124.602
123.564
122.536
121.518
120.51
119.512
118.523
117.545
116.576
115.617
114.667
113.727
112.797
111.876
110.965
110.064
109.171
108.289
107.415
106.551
105.696
104.851
104.014
103.187
102.369
101.559
100.759
99.9674
99.1846
98.4106
97.6452
96.8884
96.1402
95.4003
94.6689
93.9457
93.2307
92.5239
91.8251
91.1343
90.4515
89.7764
89.1092
88.4495
87.7975
87.153
86.516
85.8863
85.2638
84.6486
84.0406
83.4395
82.8455
82.2583
81.678
81.1045
80.5376
79.9773
79.4236
78.8764
78.3356
77.8011
77.2728
76.7508
76.2349
75.7251
75.2213
74.7235
74.2316
73.7454
73.2651
72.7905
72.3216
71.8582
71.4005
70.9482
70.5013
70.0599
69.6238
69.193
68.7675
68.3472
67.932
67.5219
67.1168
66.7168
66.3217
65.9315
65.5462
65.1658
64.7901
64.4191
64.0528
63.6912
63.3341
62.9816
62.6336
62.29
61.9509
61.6161
61.2857
60.9595
60.6375
60.3197
60.006
59.6965
59.3909
59.0894
58.7918
58.4982
58.2085
57.9226
57.6407
57.3625
57.0883
56.8179
56.5514
56.2889
56.0304
55.7759
55.5256
55.2794
55.0375
54.7999
54.5666
54.3377
54.1132
53.893
53.6773
53.4659
53.2587
53.0558
52.8571
52.6624
52.4716
52.2852
52.0998
51.9348
51.672
164.007
166.235
169.337
172.605
175.595
178.362
181.092
183.989
187.281
191.279
196.397
203.194
212.363
224.764
241.359
262.957
289.974
322.178
358.526
397.139
435.363
470.618
500.816
524.679
541.818
552.606
557.911
558.808
556.35
551.444
544.812
536.998
528.399
519.304
509.924
500.413
490.888
481.432
472.101
462.936
453.965
445.209
436.68
428.385
420.329
412.51
404.927
397.576
390.453
383.551
376.865
370.387
364.111
358.031
352.14
346.432
340.898
335.534
330.327
325.272
320.357
315.577
310.932
306.421
302.042
297.791
293.668
289.669
285.792
282.033
278.39
274.862
271.445
268.135
264.925
261.811
258.791
255.864
253.024
250.268
247.59
244.987
242.455
239.989
237.589
235.249
232.969
230.743
228.565
226.434
224.347
222.304
220.301
218.337
216.411
214.52
212.663
210.839
209.046
207.284
205.548
203.836
202.147
200.481
198.837
197.214
195.612
194.031
192.47
190.929
189.405
187.897
186.405
184.929
183.467
182.02
180.587
179.167
177.761
176.367
174.983
173.609
172.245
170.889
169.542
168.201
166.867
165.537
164.211
162.889
161.57
160.253
158.937
157.623
156.31
154.999
153.69
152.383
151.08
149.785
148.504
147.237
145.984
144.743
143.514
142.298
141.092
139.898
138.715
137.543
136.381
135.23
134.089
132.959
131.839
130.73
129.63
128.542
127.463
126.394
125.336
124.288
123.25
122.222
121.204
120.197
119.199
118.211
117.233
116.265
115.307
114.359
113.42
112.491
111.572
110.662
109.762
108.872
107.991
107.119
106.257
105.404
104.56
103.726
102.9
102.084
101.276
100.478
99.6886
98.9078
98.1358
97.3724
96.6176
95.8713
95.1334
94.4038
93.6825
92.9694
92.2644
91.5675
90.8785
90.1973
89.524
88.8584
88.2004
87.5499
86.907
86.2714
85.6431
85.0221
84.4083
83.8016
83.2018
82.609
82.0231
81.444
80.8715
80.3058
79.7465
79.1938
78.6476
78.1077
77.5741
77.0467
76.5255
76.0104
75.5013
74.9983
74.5011
74.0098
73.5243
73.0446
72.5705
72.1021
71.6392
71.1819
70.73
70.2836
69.8425
69.4067
68.9762
68.551
68.1308
67.7158
67.3059
66.901
66.5011
66.1061
65.716
65.3308
64.9503
64.5746
64.2036
63.8373
63.4756
63.1184
62.7658
62.4177
62.0739
61.7346
61.3997
61.069
60.7426
60.4203
60.1023
59.7884
59.4785
59.1727
58.8708
58.5729
58.279
57.9889
57.7027
57.4204
57.1419
56.8672
56.5965
56.3296
56.0666
55.8076
55.5526
55.3016
55.0549
54.8123
54.5739
54.3398
54.1101