/*--------------------------------*- C++ -*----------------------------------*\
| =========                 |                                                 |
| \\      /  F ield         | OpenFOAM: The Open Source CFD Toolbox           |
|  \\    /   O peration     | Version:  2306                                  |
|   \\  /    A nd           | Website:  www.openfoam.com                      |
|    \\/     M anipulation  |                                                 |
\*---------------------------------------------------------------------------*/
FoamFile
{
    version     2.0;
    format      ascii;
    arch        "LSB;label=32;scalar=64";
    class       volScalarField;
    location    "1500";
    object      p;
}
// * * * * * * * * * * * * * * * * * * * * * * * * * * * * * * * * * * * * * //

dimensions      [0 2 -2 0 0 0 0];

internalField   nonuniform List<scalar> 
25600
(
-0.149153
-0.16111
-0.164973
-0.166089
-0.167689
-0.169659
-0.171551
-0.173336
-0.175111
-0.176903
-0.178696
-0.180483
-0.182287
-0.184123
-0.185973
-0.187815
-0.189622
-0.191393
-0.193162
-0.194939
-0.196696
-0.1984
-0.200031
-0.201585
-0.203061
-0.204462
-0.205784
-0.207033
-0.208229
-0.209388
-0.21052
-0.211636
-0.21275
-0.213875
-0.215023
-0.216209
-0.217468
-0.218859
-0.22042
-0.222523
-0.152043
-0.161302
-0.164801
-0.165939
-0.167508
-0.169459
-0.17135
-0.173142
-0.174927
-0.176729
-0.178531
-0.180348
-0.18219
-0.184044
-0.185896
-0.187734
-0.189544
-0.191325
-0.193098
-0.19487
-0.196616
-0.198312
-0.199942
-0.201496
-0.202976
-0.204383
-0.20571
-0.206963
-0.208163
-0.209325
-0.21046
-0.211579
-0.212696
-0.213824
-0.214974
-0.216164
-0.217425
-0.218811
-0.220351
-0.222202
-0.154103
-0.161267
-0.164716
-0.16604
-0.16763
-0.16957
-0.171457
-0.173249
-0.175032
-0.176825
-0.178615
-0.180422
-0.18225
-0.184078
-0.185904
-0.187721
-0.189519
-0.191297
-0.193062
-0.194819
-0.196548
-0.198231
-0.199851
-0.2014
-0.202874
-0.204274
-0.205599
-0.206859
-0.208069
-0.209238
-0.21038
-0.211504
-0.212624
-0.213753
-0.214902
-0.216089
-0.217339
-0.218698
-0.220171
-0.221768
-0.155836
-0.161315
-0.164673
-0.16614
-0.167719
-0.169613
-0.171471
-0.173252
-0.175031
-0.176822
-0.178601
-0.180397
-0.182222
-0.184049
-0.185874
-0.187691
-0.189491
-0.191267
-0.193027
-0.194778
-0.196499
-0.198174
-0.199788
-0.201332
-0.202804
-0.204202
-0.205531
-0.2068
-0.208018
-0.209193
-0.210337
-0.211464
-0.212584
-0.213711
-0.214854
-0.216029
-0.21726
-0.218579
-0.21997
-0.221388
-0.157259
-0.161465
-0.164668
-0.166232
-0.167796
-0.169654
-0.171501
-0.173279
-0.175057
-0.176848
-0.17863
-0.180422
-0.18224
-0.184062
-0.18588
-0.187691
-0.189488
-0.191254
-0.193005
-0.194748
-0.196461
-0.198127
-0.199733
-0.201273
-0.202743
-0.204143
-0.205476
-0.206749
-0.207969
-0.209146
-0.210293
-0.211422
-0.212544
-0.213668
-0.214805
-0.215969
-0.21718
-0.218456
-0.21977
-0.221054
-0.158514
-0.161652
-0.164659
-0.166309
-0.167867
-0.169692
-0.171526
-0.173301
-0.175074
-0.176862
-0.178645
-0.180437
-0.18225
-0.184066
-0.185879
-0.187685
-0.189477
-0.191242
-0.192988
-0.194723
-0.196426
-0.198084
-0.199684
-0.20122
-0.202689
-0.204089
-0.205424
-0.206699
-0.207922
-0.209104
-0.210254
-0.211385
-0.212506
-0.213628
-0.214759
-0.215912
-0.2171
-0.218334
-0.219579
-0.220753
-0.159542
-0.161902
-0.164688
-0.16639
-0.167938
-0.169727
-0.171546
-0.173316
-0.175084
-0.176868
-0.178652
-0.180443
-0.182251
-0.184064
-0.185873
-0.187674
-0.189462
-0.191225
-0.192968
-0.194696
-0.196392
-0.198043
-0.199638
-0.201171
-0.202638
-0.204038
-0.205375
-0.206653
-0.20788
-0.209064
-0.210218
-0.211349
-0.21247
-0.213587
-0.214711
-0.215851
-0.217017
-0.21821
-0.219393
-0.220481
-0.160391
-0.162193
-0.164747
-0.166469
-0.168009
-0.169762
-0.171564
-0.173329
-0.175093
-0.176873
-0.178656
-0.180446
-0.18225
-0.184059
-0.185865
-0.187662
-0.189445
-0.191206
-0.192946
-0.194667
-0.196357
-0.198002
-0.199593
-0.201123
-0.202588
-0.203989
-0.205327
-0.206608
-0.207837
-0.209025
-0.21018
-0.211313
-0.212432
-0.213545
-0.214661
-0.215788
-0.21693
-0.218086
-0.219215
-0.220234
-0.161099
-0.162511
-0.164816
-0.166541
-0.168076
-0.169798
-0.171583
-0.173342
-0.175101
-0.176877
-0.178659
-0.180447
-0.182248
-0.184053
-0.185855
-0.187648
-0.189428
-0.191187
-0.192923
-0.194639
-0.196323
-0.197963
-0.19955
-0.201077
-0.202541
-0.203942
-0.205281
-0.206564
-0.207796
-0.208986
-0.210143
-0.211276
-0.212392
-0.213501
-0.214609
-0.215722
-0.216842
-0.217963
-0.219044
-0.220008
-0.161694
-0.162822
-0.1649
-0.16661
-0.168142
-0.169834
-0.171601
-0.173354
-0.175109
-0.176881
-0.178661
-0.180448
-0.182245
-0.184047
-0.185845
-0.187635
-0.189411
-0.191167
-0.192901
-0.194612
-0.196291
-0.197926
-0.199509
-0.201034
-0.202497
-0.203898
-0.205238
-0.206522
-0.207757
-0.208949
-0.210106
-0.211238
-0.212353
-0.213457
-0.214556
-0.215655
-0.216753
-0.217842
-0.218881
-0.219799
-0.162195
-0.163115
-0.164994
-0.166676
-0.168203
-0.169869
-0.171619
-0.173366
-0.175116
-0.176884
-0.178663
-0.180448
-0.182242
-0.184041
-0.185836
-0.187622
-0.189396
-0.191149
-0.19288
-0.194586
-0.196261
-0.197891
-0.199471
-0.200993
-0.202455
-0.203856
-0.205198
-0.206483
-0.207719
-0.208912
-0.21007
-0.211202
-0.212313
-0.213411
-0.214502
-0.215587
-0.216665
-0.217724
-0.218726
-0.219607
-0.162617
-0.163384
-0.165092
-0.166739
-0.16826
-0.169902
-0.171636
-0.173377
-0.175124
-0.176888
-0.178664
-0.180448
-0.18224
-0.184035
-0.185827
-0.187611
-0.189381
-0.191132
-0.19286
-0.194563
-0.196233
-0.19786
-0.199437
-0.200957
-0.202418
-0.203818
-0.20516
-0.206447
-0.207684
-0.208878
-0.210036
-0.211166
-0.212274
-0.213366
-0.214447
-0.215519
-0.216577
-0.217609
-0.218579
-0.219429
-0.162972
-0.163626
-0.165189
-0.166796
-0.168311
-0.169934
-0.171652
-0.173387
-0.17513
-0.176892
-0.178666
-0.180448
-0.182237
-0.18403
-0.18582
-0.187601
-0.189369
-0.191117
-0.192843
-0.194542
-0.196208
-0.197832
-0.199406
-0.200924
-0.202384
-0.203784
-0.205126
-0.206413
-0.207651
-0.208845
-0.210003
-0.211131
-0.212235
-0.213322
-0.214394
-0.215452
-0.216491
-0.217498
-0.218439
-0.219264
-0.163268
-0.163838
-0.165281
-0.166849
-0.168356
-0.169963
-0.171667
-0.173396
-0.175137
-0.176895
-0.178667
-0.180448
-0.182235
-0.184026
-0.185813
-0.187592
-0.189357
-0.191104
-0.192827
-0.194524
-0.196187
-0.197807
-0.199379
-0.200895
-0.202354
-0.203754
-0.205096
-0.206383
-0.207621
-0.208815
-0.209972
-0.211097
-0.212198
-0.213278
-0.214341
-0.215386
-0.216407
-0.217391
-0.218308
-0.219111
-0.163513
-0.164021
-0.165366
-0.166896
-0.168396
-0.169988
-0.17168
-0.173404
-0.175142
-0.176898
-0.178668
-0.180448
-0.182234
-0.184022
-0.185807
-0.187584
-0.189348
-0.191092
-0.192814
-0.194508
-0.196168
-0.197786
-0.199355
-0.20087
-0.202328
-0.203727
-0.205069
-0.206356
-0.207594
-0.208787
-0.209943
-0.211066
-0.212162
-0.213236
-0.214289
-0.215322
-0.216326
-0.21729
-0.218183
-0.218968
-0.16371
-0.164172
-0.16544
-0.166936
-0.168429
-0.17001
-0.171692
-0.173411
-0.175147
-0.1769
-0.17867
-0.180448
-0.182232
-0.184019
-0.185803
-0.187578
-0.18934
-0.191083
-0.192802
-0.194494
-0.196152
-0.197768
-0.199335
-0.200849
-0.202305
-0.203704
-0.205045
-0.206333
-0.20757
-0.208762
-0.209916
-0.211036
-0.212128
-0.213195
-0.214239
-0.215259
-0.216248
-0.217192
-0.218066
-0.218835
-0.163863
-0.164293
-0.165501
-0.166969
-0.168456
-0.170028
-0.171701
-0.173417
-0.175151
-0.176903
-0.17867
-0.180448
-0.182231
-0.184016
-0.185799
-0.187573
-0.189333
-0.191075
-0.192793
-0.194483
-0.196139
-0.197753
-0.199319
-0.200831
-0.202287
-0.203685
-0.205026
-0.206312
-0.207549
-0.20874
-0.209891
-0.211008
-0.212095
-0.213156
-0.214191
-0.215199
-0.216173
-0.2171
-0.217956
-0.21871
-0.163976
-0.164383
-0.165548
-0.166995
-0.168476
-0.170042
-0.171708
-0.173422
-0.175153
-0.176904
-0.178671
-0.180448
-0.18223
-0.184014
-0.185796
-0.187569
-0.189328
-0.191069
-0.192786
-0.194475
-0.196129
-0.197742
-0.199306
-0.200817
-0.202272
-0.203669
-0.20501
-0.206295
-0.207531
-0.20872
-0.209869
-0.210982
-0.212065
-0.213118
-0.214145
-0.215141
-0.216102
-0.217012
-0.217852
-0.218595
-0.164051
-0.164443
-0.16558
-0.167012
-0.168489
-0.170051
-0.171713
-0.173424
-0.175155
-0.176905
-0.178671
-0.180448
-0.182229
-0.184013
-0.185794
-0.187566
-0.189325
-0.191065
-0.192781
-0.194469
-0.196122
-0.197734
-0.199297
-0.200808
-0.202261
-0.203658
-0.204997
-0.206282
-0.207515
-0.208703
-0.209849
-0.210959
-0.212036
-0.213083
-0.2141
-0.215086
-0.216033
-0.216929
-0.217755
-0.218487
-0.164087
-0.164473
-0.165596
-0.167021
-0.168496
-0.170056
-0.171716
-0.173426
-0.175156
-0.176906
-0.178672
-0.180448
-0.182229
-0.184012
-0.185793
-0.187565
-0.189323
-0.191063
-0.192779
-0.194466
-0.196118
-0.197729
-0.199292
-0.200801
-0.202254
-0.20365
-0.204988
-0.206271
-0.207503
-0.208688
-0.209832
-0.210937
-0.212009
-0.213049
-0.214058
-0.215033
-0.215968
-0.21685
-0.217663
-0.218386
-0.164087
-0.164473
-0.165596
-0.167021
-0.168496
-0.170056
-0.171716
-0.173426
-0.175156
-0.176906
-0.178672
-0.180447
-0.182229
-0.184012
-0.185793
-0.187564
-0.189323
-0.191062
-0.192778
-0.194465
-0.196117
-0.197728
-0.19929
-0.200799
-0.202251
-0.203646
-0.204983
-0.206264
-0.207494
-0.208677
-0.209817
-0.210918
-0.211984
-0.213018
-0.214018
-0.214984
-0.215906
-0.216776
-0.217578
-0.218292
-0.164051
-0.164443
-0.16558
-0.167012
-0.168489
-0.170051
-0.171713
-0.173424
-0.175155
-0.176905
-0.178671
-0.180447
-0.182229
-0.184013
-0.185793
-0.187565
-0.189324
-0.191063
-0.192779
-0.194467
-0.196119
-0.19773
-0.199292
-0.2008
-0.202252
-0.203645
-0.204981
-0.206261
-0.207488
-0.208668
-0.209804
-0.210901
-0.211962
-0.212988
-0.213981
-0.214936
-0.215848
-0.216707
-0.217498
-0.218204
-0.163976
-0.164383
-0.165548
-0.166995
-0.168476
-0.170042
-0.171708
-0.173421
-0.175153
-0.176904
-0.178671
-0.180447
-0.182229
-0.184014
-0.185795
-0.187567
-0.189326
-0.191066
-0.192783
-0.194471
-0.196124
-0.197735
-0.199297
-0.200805
-0.202256
-0.203648
-0.204983
-0.20626
-0.207486
-0.208662
-0.209794
-0.210886
-0.211941
-0.212961
-0.213946
-0.214892
-0.215794
-0.216641
-0.217423
-0.218123
-0.163863
-0.164293
-0.165501
-0.166969
-0.168455
-0.170028
-0.171701
-0.173417
-0.17515
-0.176902
-0.17867
-0.180447
-0.18223
-0.184015
-0.185797
-0.187571
-0.18933
-0.191071
-0.192788
-0.194477
-0.196131
-0.197743
-0.199306
-0.200814
-0.202264
-0.203656
-0.204988
-0.206264
-0.207486
-0.208659
-0.209787
-0.210874
-0.211923
-0.212937
-0.213913
-0.214851
-0.215743
-0.21658
-0.217353
-0.218047
-0.16371
-0.164172
-0.16544
-0.166936
-0.168429
-0.17001
-0.171691
-0.173411
-0.175146
-0.1769
-0.178669
-0.180447
-0.182231
-0.184017
-0.185801
-0.187575
-0.189336
-0.191078
-0.192796
-0.194486
-0.196142
-0.197755
-0.199318
-0.200826
-0.202276
-0.203667
-0.204997
-0.20627
-0.20749
-0.208659
-0.209782
-0.210864
-0.211908
-0.212914
-0.213883
-0.214812
-0.215695
-0.216524
-0.217288
-0.217977
-0.163513
-0.16402
-0.165366
-0.166896
-0.168395
-0.169988
-0.17168
-0.173404
-0.175142
-0.176897
-0.178668
-0.180447
-0.182232
-0.18402
-0.185805
-0.187581
-0.189343
-0.191087
-0.192806
-0.194498
-0.196155
-0.19777
-0.199334
-0.200843
-0.202293
-0.203682
-0.20501
-0.206281
-0.207496
-0.208662
-0.209781
-0.210857
-0.211895
-0.212895
-0.213856
-0.214777
-0.215651
-0.216471
-0.217228
-0.217912
-0.163268
-0.163838
-0.165281
-0.166849
-0.168356
-0.169962
-0.171666
-0.173396
-0.175136
-0.176894
-0.178666
-0.180447
-0.182234
-0.184023
-0.18581
-0.187588
-0.189352
-0.191097
-0.192819
-0.194512
-0.196172
-0.197788
-0.199354
-0.200863
-0.202313
-0.203701
-0.205027
-0.206295
-0.207507
-0.208668
-0.209782
-0.210853
-0.211884
-0.212877
-0.213832
-0.214744
-0.21561
-0.216422
-0.217172
-0.217852
-0.162972
-0.163626
-0.165189
-0.166796
-0.16831
-0.169934
-0.171652
-0.173387
-0.17513
-0.176891
-0.178665
-0.180446
-0.182235
-0.184027
-0.185816
-0.187596
-0.189363
-0.191109
-0.192833
-0.194529
-0.196192
-0.19781
-0.199378
-0.200888
-0.202337
-0.203723
-0.205048
-0.206312
-0.20752
-0.208676
-0.209785
-0.210851
-0.211876
-0.212863
-0.21381
-0.214715
-0.215573
-0.216377
-0.217121
-0.217796
-0.162617
-0.163384
-0.165092
-0.166738
-0.168259
-0.169902
-0.171635
-0.173376
-0.175123
-0.176887
-0.178663
-0.180446
-0.182238
-0.184032
-0.185823
-0.187606
-0.189375
-0.191124
-0.192849
-0.194549
-0.196214
-0.197836
-0.199405
-0.200916
-0.202365
-0.20375
-0.205072
-0.206333
-0.207537
-0.208688
-0.209792
-0.210852
-0.21187
-0.21285
-0.21379
-0.214688
-0.215538
-0.216336
-0.217074
-0.217745
-0.162195
-0.163115
-0.164993
-0.166676
-0.168203
-0.169869
-0.171618
-0.173365
-0.175116
-0.176883
-0.178661
-0.180446
-0.18224
-0.184037
-0.185831
-0.187617
-0.189388
-0.191139
-0.192867
-0.19457
-0.19624
-0.197865
-0.199436
-0.200949
-0.202397
-0.203781
-0.205101
-0.206358
-0.207557
-0.208703
-0.209801
-0.210855
-0.211867
-0.21284
-0.213774
-0.214664
-0.215507
-0.216298
-0.217031
-0.217698
-0.161694
-0.162822
-0.1649
-0.16661
-0.168141
-0.169834
-0.171601
-0.173353
-0.175108
-0.17688
-0.178659
-0.180446
-0.182242
-0.184043
-0.18584
-0.187629
-0.189403
-0.191157
-0.192887
-0.194595
-0.196268
-0.197897
-0.199471
-0.200985
-0.202433
-0.203816
-0.205132
-0.206386
-0.20758
-0.208721
-0.209813
-0.21086
-0.211866
-0.212832
-0.213759
-0.214643
-0.215479
-0.216264
-0.216991
-0.217656
-0.161099
-0.162511
-0.164816
-0.16654
-0.168076
-0.169798
-0.171582
-0.173341
-0.1751
-0.176876
-0.178657
-0.180445
-0.182245
-0.184049
-0.18585
-0.187642
-0.18942
-0.191175
-0.192909
-0.19462
-0.196299
-0.197932
-0.199509
-0.201024
-0.202473
-0.203854
-0.205168
-0.206417
-0.207606
-0.208741
-0.209826
-0.210867
-0.211866
-0.212826
-0.213747
-0.214624
-0.215454
-0.216233
-0.216955
-0.217616
-0.160391
-0.162193
-0.164746
-0.166469
-0.168008
-0.169762
-0.171564
-0.173328
-0.175092
-0.176871
-0.178654
-0.180444
-0.182247
-0.184055
-0.185859
-0.187655
-0.189436
-0.191194
-0.192931
-0.194647
-0.196331
-0.197969
-0.19955
-0.201067
-0.202516
-0.203895
-0.205206
-0.20645
-0.207634
-0.208762
-0.209842
-0.210876
-0.211868
-0.212822
-0.213736
-0.214607
-0.215431
-0.216204
-0.216922
-0.217581
-0.159542
-0.161902
-0.164688
-0.166389
-0.167938
-0.169726
-0.171545
-0.173315
-0.175083
-0.176867
-0.17865
-0.180441
-0.182248
-0.18406
-0.185868
-0.187667
-0.189452
-0.191213
-0.192952
-0.194675
-0.196365
-0.198007
-0.199592
-0.201111
-0.202561
-0.203939
-0.205246
-0.206486
-0.207664
-0.208786
-0.209859
-0.210886
-0.211872
-0.212819
-0.213727
-0.214592
-0.21541
-0.216179
-0.216893
-0.217548
-0.158514
-0.161651
-0.164659
-0.166309
-0.167866
-0.169691
-0.171525
-0.1733
-0.175073
-0.17686
-0.178643
-0.180434
-0.182246
-0.184062
-0.185873
-0.187677
-0.189467
-0.191229
-0.192971
-0.1947
-0.196397
-0.198046
-0.199636
-0.201158
-0.202608
-0.203985
-0.205289
-0.206524
-0.207696
-0.208811
-0.209877
-0.210897
-0.211876
-0.212818
-0.213721
-0.21458
-0.215393
-0.216156
-0.216867
-0.217521
-0.157259
-0.161465
-0.164667
-0.166232
-0.167795
-0.169654
-0.1715
-0.173278
-0.175056
-0.176847
-0.178628
-0.18042
-0.182237
-0.184057
-0.185874
-0.187683
-0.189477
-0.19124
-0.192987
-0.194725
-0.196431
-0.198087
-0.199683
-0.201207
-0.202658
-0.204034
-0.205335
-0.206566
-0.207732
-0.20884
-0.209899
-0.210913
-0.211885
-0.21282
-0.213716
-0.21457
-0.215378
-0.216138
-0.216844
-0.217496
-0.155836
-0.161315
-0.164673
-0.16614
-0.167718
-0.169613
-0.171471
-0.173251
-0.17503
-0.17682
-0.178599
-0.180395
-0.182219
-0.184044
-0.185867
-0.187682
-0.18948
-0.191252
-0.193009
-0.194754
-0.196468
-0.198133
-0.199735
-0.201264
-0.202716
-0.204089
-0.205385
-0.20661
-0.207772
-0.208875
-0.209927
-0.210934
-0.211901
-0.21283
-0.21372
-0.214569
-0.215372
-0.216127
-0.21683
-0.21748
-0.154103
-0.161267
-0.164716
-0.16604
-0.16763
-0.16957
-0.171456
-0.173248
-0.175031
-0.176823
-0.178613
-0.180419
-0.182246
-0.184073
-0.185898
-0.187712
-0.189508
-0.191282
-0.193043
-0.194794
-0.196515
-0.198189
-0.199797
-0.20133
-0.202784
-0.204158
-0.205448
-0.206662
-0.207815
-0.20891
-0.209955
-0.210956
-0.211919
-0.212844
-0.213732
-0.214578
-0.215379
-0.216132
-0.216834
-0.217484
-0.152043
-0.161302
-0.164801
-0.165939
-0.167508
-0.169459
-0.171349
-0.173141
-0.174926
-0.176727
-0.178529
-0.180345
-0.182186
-0.184039
-0.185889
-0.187726
-0.189532
-0.19131
-0.193079
-0.194844
-0.196583
-0.198269
-0.199886
-0.201425
-0.202884
-0.204263
-0.205555
-0.206762
-0.207903
-0.208989
-0.210026
-0.21102
-0.211976
-0.212895
-0.213778
-0.21462
-0.215417
-0.216167
-0.216866
-0.217513
-0.149153
-0.16111
-0.164973
-0.166089
-0.167688
-0.169659
-0.17155
-0.173335
-0.17511
-0.176901
-0.178693
-0.18048
-0.182284
-0.184118
-0.185966
-0.187806
-0.18961
-0.191377
-0.193142
-0.194913
-0.196662
-0.198356
-0.199975
-0.201512
-0.202968
-0.204342
-0.205628
-0.206831
-0.207967
-0.209049
-0.210082
-0.211072
-0.212024
-0.212939
-0.213816
-0.214654
-0.215448
-0.216195
-0.216891
-0.217537
-0.223346
-0.222417
-0.223182
-0.223324
-0.223065
-0.222788
-0.222557
-0.222394
-0.222356
-0.222481
-0.222788
-0.223272
-0.223911
-0.224663
-0.225476
-0.226304
-0.227106
-0.227834
-0.228465
-0.228983
-0.229359
-0.229557
-0.229551
-0.229328
-0.228879
-0.228198
-0.227287
-0.226137
-0.224756
-0.223147
-0.221307
-0.219251
-0.216987
-0.214515
-0.211846
-0.209003
-0.205991
-0.20281
-0.19948
-0.196019
-0.192442
-0.188755
-0.184967
-0.181098
-0.177162
-0.173176
-0.169151
-0.165091
-0.161009
-0.15692
-0.152834
-0.14876
-0.144711
-0.140691
-0.136715
-0.132778
-0.128884
-0.125041
-0.121266
-0.117562
-0.113931
-0.110374
-0.106896
-0.103497
-0.100179
-0.0969423
-0.0937896
-0.0907207
-0.0877347
-0.0848314
-0.0820102
-0.079271
-0.0766135
-0.0740357
-0.071536
-0.0691131
-0.0667655
-0.0644919
-0.0622905
-0.0601593
-0.0580965
-0.0561005
-0.0541689
-0.0522996
-0.0504912
-0.0487421
-0.0470501
-0.0454129
-0.0438287
-0.0422962
-0.0408134
-0.039378
-0.0379888
-0.0366445
-0.0353431
-0.0340825
-0.0328618
-0.0316798
-0.0305344
-0.0294241
-0.0283485
-0.0273061
-0.0262949
-0.0253143
-0.0243637
-0.0234413
-0.0225457
-0.0216773
-0.0208344
-0.0200152
-0.0192205
-0.018449
-0.0176988
-0.0169712
-0.0162644
-0.0155773
-0.0149108
-0.0142625
-0.0136337
-0.0130226
-0.0124267
-0.011848
-0.0112832
-0.0107311
-0.0101933
-0.00966934
-0.00915814
-0.00865861
-0.00817279
-0.00770117
-0.00724036
-0.00679133
-0.0063554
-0.00593081
-0.005516
-0.00511159
-0.00471831
-0.00433339
-0.00395645
-0.00358808
-0.00323061
-0.00288556
-0.00255082
-0.00222581
-0.00191017
-0.00160352
-0.00130561
-0.00101621
-0.000735119
-0.000462135
-0.000197071
6.02416e-05
0.000309961
0.000552239
0.00078722
0.00101505
0.00123587
0.00144982
0.00165703
0.00185763
0.00205175
0.0022395
0.00242102
0.00259643
0.00276585
0.0029294
0.0030872
0.00323935
0.00338597
0.00352714
0.00366296
0.00379353
0.00391893
0.00403925
0.00415458
0.004265
0.00437061
0.00447148
0.0045677
0.00465936
0.00474653
0.0048293
0.00490776
0.00498197
0.00505203
0.00511801
0.00518
0.00523808
0.00529233
0.00534282
0.00538964
0.00543287
0.00547258
0.00550886
0.00554177
0.00557141
0.00559783
0.00562111
0.00564133
0.00565856
0.00567287
0.00568433
0.00569301
0.00569898
0.00570229
0.00570303
0.00570126
0.00569703
0.00569041
0.00568147
0.00567026
0.00565684
0.00564127
0.00562361
0.0056039
0.00558221
0.00555858
0.00553307
0.00550572
0.00547658
0.0054457
0.00541313
0.00537891
0.00534308
0.00530568
0.00526676
0.00522636
0.00518451
0.00514125
0.00509662
0.00505065
0.00500339
0.00495486
0.0049051
0.00485413
0.004802
0.00474872
0.00469434
0.00463887
0.00458235
0.0045248
0.00446624
0.00440671
0.00434622
0.0042848
0.00422247
0.00415925
0.00409517
0.00403024
0.0039645
0.00389795
0.00383063
0.00376255
0.00369374
0.00362421
0.00355399
0.0034831
0.00341155
0.00333937
0.00326658
0.0031932
0.00311925
0.00304475
0.00296974
0.00289423
0.00281825
0.00274183
0.002665
0.00258779
0.00251024
0.00243237
0.00235422
0.00227582
0.00219719
0.00211834
0.00203929
0.00196002
0.00188051
0.00180074
0.00172064
0.00164018
0.00155928
0.00147788
0.00139595
0.00131346
0.00123039
0.00114678
0.00106265
0.000978074
0.000893128
0.000807899
0.000722465
0.000636953
0.00055134
0.000466002
0.000380242
0.000296152
0.000208582
0.000130715
3.04171e-05
-0.222937
-0.2221
-0.222358
-0.222232
-0.22193
-0.221783
-0.221698
-0.221671
-0.221747
-0.221954
-0.222317
-0.222835
-0.223491
-0.224249
-0.225065
-0.225892
-0.226689
-0.227409
-0.228032
-0.228539
-0.228902
-0.229088
-0.229072
-0.228841
-0.228386
-0.227703
-0.226791
-0.225644
-0.224267
-0.222665
-0.220836
-0.218791
-0.216539
-0.214082
-0.211431
-0.208604
-0.205608
-0.202446
-0.199136
-0.195696
-0.192138
-0.188469
-0.184703
-0.180854
-0.176939
-0.172971
-0.168964
-0.164922
-0.16086
-0.156788
-0.15272
-0.148663
-0.144631
-0.140625
-0.136663
-0.13274
-0.128861
-0.125034
-0.121273
-0.117585
-0.113968
-0.110421
-0.106951
-0.103559
-0.100248
-0.0970168
-0.0938689
-0.090804
-0.0878215
-0.084921
-0.0821022
-0.0793649
-0.0767089
-0.0741321
-0.0716329
-0.0692101
-0.0668623
-0.0645882
-0.0623862
-0.0602542
-0.0581902
-0.0561928
-0.0542595
-0.0523885
-0.0505782
-0.0488272
-0.0471332
-0.0454938
-0.0439075
-0.0423727
-0.0408874
-0.0394497
-0.0380582
-0.0367117
-0.035408
-0.0341452
-0.0329224
-0.0317381
-0.0305906
-0.0294783
-0.0284007
-0.0273563
-0.0263433
-0.0253609
-0.0244084
-0.0234842
-0.0225869
-0.0217167
-0.0208719
-0.020051
-0.0192543
-0.0184807
-0.0177285
-0.0169984
-0.016289
-0.0155993
-0.0149297
-0.0142786
-0.0136465
-0.0130323
-0.0124346
-0.0118546
-0.0112893
-0.010739
-0.0102045
-0.00968217
-0.00917186
-0.00867476
-0.00819052
-0.00771844
-0.00725662
-0.00680667
-0.00637026
-0.00594525
-0.00552957
-0.0051244
-0.00473085
-0.00434531
-0.00396729
-0.00359761
-0.00323919
-0.00289387
-0.00255894
-0.00223377
-0.00191798
-0.00161118
-0.00131314
-0.00102361
-0.000742394
-0.000469298
-0.000204129
5.32824e-05
0.000303093
0.000545454
0.00078051
0.00100841
0.00122928
0.00144329
0.00165055
0.0018512
0.00204535
0.00223314
0.00241469
0.00259012
0.00275956
0.00292314
0.00308096
0.00323315
0.0033798
0.003521
0.00365686
0.00378746
0.00391289
0.00403325
0.00414861
0.00425907
0.00436471
0.00446562
0.00456187
0.00465356
0.00474076
0.00482357
0.00490205
0.00497629
0.00504637
0.00511238
0.0051744
0.0052325
0.00528676
0.00533728
0.00538412
0.00542736
0.00546709
0.00550339
0.00553632
0.00556596
0.0055924
0.0056157
0.00563594
0.00565319
0.00566752
0.005679
0.00568769
0.00569368
0.00569701
0.00569778
0.00569602
0.00569182
0.00568522
0.00567631
0.00566512
0.00565173
0.00563619
0.00561855
0.00559888
0.00557722
0.00555363
0.00552815
0.00550084
0.00547174
0.0054409
0.00540837
0.00537418
0.00533839
0.00530104
0.00526216
0.00522179
0.00517999
0.00513677
0.00509219
0.00504626
0.00499904
0.00495055
0.00490084
0.00484992
0.00479783
0.0047446
0.00469026
0.00463483
0.00457836
0.00452085
0.00446234
0.00440285
0.0043424
0.00428102
0.00421874
0.00415556
0.00409152
0.00402663
0.00396093
0.00389442
0.00382714
0.0037591
0.00369033
0.00362084
0.00355066
0.00347981
0.0034083
0.00333617
0.00326342
0.00319009
0.00311619
0.00304174
0.00296679
0.00289133
0.00281542
0.00273906
0.00266231
0.00258518
0.00250771
0.00242993
0.00235188
0.00227359
0.00219507
0.00211634
0.00203741
0.00195827
0.0018789
0.00179926
0.00171931
0.00163898
0.00155822
0.00147697
0.00139519
0.00131283
0.00122989
0.0011464
0.00106239
0.000977916
0.000893066
0.000807927
0.000722569
0.000637141
0.000551564
0.000466348
0.000380452
0.000296801
0.00020817
0.000132759
2.59156e-05
-0.222469
-0.221937
-0.222035
-0.221978
-0.221692
-0.221468
-0.221273
-0.221172
-0.22122
-0.22144
-0.221838
-0.222393
-0.223075
-0.223849
-0.224671
-0.225495
-0.226278
-0.22699
-0.227605
-0.228099
-0.228448
-0.228622
-0.228596
-0.228356
-0.227896
-0.227209
-0.226296
-0.225152
-0.223779
-0.222183
-0.220363
-0.218329
-0.21609
-0.213648
-0.211012
-0.208202
-0.205223
-0.202081
-0.198791
-0.19537
-0.191832
-0.188184
-0.184439
-0.180612
-0.176717
-0.172769
-0.168781
-0.164759
-0.160715
-0.156663
-0.152612
-0.148572
-0.144554
-0.140564
-0.136617
-0.132709
-0.128852
-0.125048
-0.121302
-0.117626
-0.114017
-0.110477
-0.107015
-0.103631
-0.100326
-0.0970999
-0.0939564
-0.0908954
-0.0879163
-0.0850187
-0.0822022
-0.0794667
-0.0768119
-0.0742359
-0.0717372
-0.0693144
-0.0669663
-0.0646917
-0.0624889
-0.0603558
-0.0582906
-0.0562915
-0.0543565
-0.0524835
-0.0506714
-0.0489182
-0.047222
-0.0455803
-0.0439916
-0.0424543
-0.0409665
-0.0395263
-0.0381324
-0.0367833
-0.0354771
-0.034212
-0.0329867
-0.0318001
-0.0306503
-0.0295357
-0.0284558
-0.0274093
-0.0263942
-0.0254099
-0.0244554
-0.0235294
-0.0226304
-0.0217583
-0.0209118
-0.0200893
-0.0192909
-0.0185155
-0.0177616
-0.0170297
-0.0163184
-0.0156266
-0.0149547
-0.0143012
-0.0136663
-0.0130492
-0.0124488
-0.0118657
-0.0112982
-0.0107465
-0.0102107
-0.00968798
-0.00917869
-0.00868451
-0.00820235
-0.00773033
-0.00727031
-0.00682259
-0.00638624
-0.00596069
-0.00554409
-0.00513818
-0.00474439
-0.00435803
-0.00397862
-0.00360737
-0.00324794
-0.00290245
-0.00256738
-0.00224207
-0.00192614
-0.00161921
-0.00132103
-0.00103137
-0.000750034
-0.000476825
-0.000211549
4.59646e-05
0.00029587
0.000538318
0.000773453
0.00100142
0.00122236
0.00143642
0.00164374
0.00184444
0.00203863
0.00222646
0.00240804
0.00258351
0.00275298
0.00291658
0.00307444
0.00322666
0.00337335
0.00351459
0.00365049
0.00378113
0.00390661
0.00402701
0.00414242
0.00425292
0.0043586
0.00445955
0.00455585
0.00464757
0.00473482
0.00481765
0.00489617
0.00497045
0.00504056
0.00510661
0.00516865
0.00522678
0.00528107
0.00533161
0.00537848
0.00542175
0.0054615
0.00549782
0.00553077
0.00556044
0.0055869
0.00561023
0.00563049
0.00564776
0.00566211
0.00567361
0.00568233
0.00568834
0.0056917
0.00569249
0.00569076
0.00568658
0.00568002
0.00567113
0.00565997
0.00564661
0.00563111
0.00561351
0.00559387
0.00557224
0.00554869
0.00552325
0.00549597
0.00546692
0.00543612
0.00540363
0.00536948
0.00533374
0.00529642
0.00525759
0.00521727
0.00517551
0.00513233
0.00508779
0.00504192
0.00499474
0.0049463
0.00489663
0.00484575
0.00479371
0.00474053
0.00468623
0.00463085
0.00457442
0.00451696
0.0044585
0.00439905
0.00433865
0.00427731
0.00421507
0.00415193
0.00408793
0.00402309
0.00395742
0.00389096
0.00382371
0.00375571
0.00368698
0.00361753
0.00354739
0.00347658
0.00340512
0.00333303
0.00326033
0.00318704
0.00311319
0.0030388
0.0029639
0.0028885
0.00281265
0.00273636
0.00265968
0.00258262
0.00250524
0.00242755
0.00234959
0.00227139
0.00219297
0.00211435
0.00203553
0.0019565
0.00187725
0.00179774
0.00171791
0.00163772
0.00155709
0.00147598
0.00139432
0.0013121
0.0012293
0.00114593
0.00106204
0.000977687
0.000892945
0.000807908
0.000722638
0.000637305
0.000551776
0.000466688
0.000380674
0.00029743
0.000207814
0.000134586
2.15751e-05
-0.22211
-0.221819
-0.22186
-0.221854
-0.221616
-0.221388
-0.221195
-0.221081
-0.221085
-0.22124
-0.22157
-0.222067
-0.22271
-0.223464
-0.224276
-0.225095
-0.225872
-0.22658
-0.227186
-0.227668
-0.228003
-0.228164
-0.228127
-0.227879
-0.227412
-0.226722
-0.225808
-0.224664
-0.223295
-0.221705
-0.219894
-0.21787
-0.215643
-0.213214
-0.210595
-0.207801
-0.20484
-0.201717
-0.198447
-0.195047
-0.191529
-0.187902
-0.184178
-0.180372
-0.176498
-0.172571
-0.168603
-0.164601
-0.160576
-0.156543
-0.15251
-0.148488
-0.144486
-0.140512
-0.136579
-0.132687
-0.128849
-0.125067
-0.121339
-0.117675
-0.114073
-0.110541
-0.107087
-0.103711
-0.100411
-0.0971892
-0.0940496
-0.0909925
-0.0880171
-0.0851227
-0.0823083
-0.0795742
-0.0769204
-0.0743451
-0.0718468
-0.0694242
-0.0670757
-0.0648005
-0.0625969
-0.0604626
-0.0583959
-0.0563952
-0.0544582
-0.0525833
-0.0507692
-0.0490138
-0.0473152
-0.0456712
-0.0440799
-0.0425399
-0.0410494
-0.0396067
-0.0382102
-0.0368586
-0.0355498
-0.0342822
-0.0330544
-0.0318652
-0.0307128
-0.0295958
-0.0285136
-0.0274647
-0.0264475
-0.025461
-0.0245044
-0.0235764
-0.0226756
-0.0218016
-0.0209533
-0.0201291
-0.0193291
-0.018552
-0.0177966
-0.017063
-0.0163501
-0.0156567
-0.0149831
-0.0143279
-0.013691
-0.0130717
-0.012469
-0.0118832
-0.0113133
-0.0107592
-0.0102207
-0.00969621
-0.0091859
-0.00869059
-0.00820777
-0.00773583
-0.00727809
-0.00683308
-0.00639726
-0.00597199
-0.0055573
-0.00515311
-0.00475921
-0.00437202
-0.00399109
-0.00361767
-0.00325689
-0.00291132
-0.00257618
-0.00225078
-0.00193472
-0.00162766
-0.00132934
-0.00103955
-0.000758095
-0.000484771
-0.000219384
3.82352e-05
0.00028824
0.00053078
0.000765999
0.00099404
0.00121505
0.00142918
0.00163655
0.00183731
0.00203155
0.00221942
0.00240104
0.00257655
0.00274605
0.00290969
0.00306759
0.00321986
0.00336659
0.00350788
0.00364383
0.00377453
0.00390005
0.0040205
0.00413596
0.00424652
0.00435225
0.00445325
0.00454959
0.00464137
0.00472866
0.00481154
0.0048901
0.00496442
0.00503458
0.00510066
0.00516275
0.00522091
0.00527524
0.00532582
0.00537271
0.00541602
0.0054558
0.00549215
0.00552513
0.00555483
0.00558132
0.00560467
0.00562496
0.00564226
0.00565664
0.00566817
0.00567692
0.00568295
0.00568635
0.00568716
0.00568546
0.00568132
0.00567478
0.00566593
0.00565481
0.00564148
0.00562601
0.00560845
0.00558885
0.00556726
0.00554375
0.00551835
0.00549112
0.0054621
0.00543135
0.0053989
0.0053648
0.0053291
0.00529183
0.00525304
0.00521277
0.00517105
0.00512793
0.00508344
0.0050376
0.00499048
0.00494208
0.00489246
0.00484163
0.00478963
0.0047365
0.00468225
0.00462692
0.00457054
0.00451312
0.0044547
0.0043953
0.00433495
0.00427365
0.00421145
0.00414836
0.0040844
0.0040196
0.00395397
0.00388755
0.00382035
0.00375239
0.00368369
0.00361429
0.00354419
0.00347342
0.003402
0.00332995
0.0032573
0.00318406
0.00311026
0.00303592
0.00296107
0.00288574
0.00280994
0.00273372
0.0026571
0.00258012
0.00250281
0.0024252
0.00234733
0.00226921
0.00219089
0.00211236
0.00203364
0.00195472
0.00187558
0.00179617
0.00171646
0.00163638
0.00155588
0.00147489
0.00139336
0.00131127
0.0012286
0.00114536
0.0010616
0.000977376
0.000892752
0.00080783
0.000722661
0.000637435
0.000551968
0.000467015
0.000380901
0.000298051
0.000207493
0.000136377
1.7329e-05
-0.221777
-0.221661
-0.221683
-0.221708
-0.221532
-0.221343
-0.221196
-0.221118
-0.221142
-0.221299
-0.221608
-0.222052
-0.222614
-0.223282
-0.22401
-0.224762
-0.225497
-0.226176
-0.226764
-0.227231
-0.227555
-0.227708
-0.227664
-0.227409
-0.226936
-0.226243
-0.225327