/*--------------------------------*- C++ -*----------------------------------*\
| =========                 |                                                 |
| \\      /  F ield         | OpenFOAM: The Open Source CFD Toolbox           |
|  \\    /   O peration     | Version:  2306                                  |
|   \\  /    A nd           | Website:  www.openfoam.com                      |
|    \\/     M anipulation  |                                                 |
\*---------------------------------------------------------------------------*/
FoamFile
{
    version     2.0;
    format      ascii;
    arch        "LSB;label=32;scalar=64";
    class       surfaceScalarField;
    location    "1500";
    object      phi;
}
// * * * * * * * * * * * * * * * * * * * * * * * * * * * * * * * * * * * * * //

dimensions      [0 3 -1 0 0 0 0];

oriented        oriented;

internalField   nonuniform List<scalar> 
50780
(
2.42445e-07
7.55517e-09
2.35508e-07
6.93648e-09
2.28987e-07
6.52124e-09
2.22558e-07
6.42862e-09
2.16225e-07
6.33315e-09
2.10024e-07
6.20163e-09
2.03972e-07
6.05201e-09
1.98078e-07
5.89355e-09
1.92345e-07
5.73293e-09
1.86777e-07
5.56839e-09
1.81383e-07
5.3942e-09
1.76151e-07
5.23166e-09
1.71062e-07
5.08942e-09
1.66125e-07
4.93694e-09
1.61371e-07
4.75395e-09
1.56837e-07
4.53334e-09
1.52534e-07
4.30376e-09
1.48439e-07
4.09469e-09
1.44549e-07
3.88999e-09
1.4089e-07
3.65906e-09
1.37513e-07
3.37707e-09
1.34456e-07
3.05705e-09
1.31727e-07
2.72868e-09
1.29325e-07
2.4023e-09
1.27247e-07
2.07724e-09
1.25488e-07
1.75989e-09
1.24026e-07
1.46184e-09
1.22831e-07
1.19428e-09
1.21867e-07
9.64359e-10
1.21097e-07
7.69654e-10
1.20493e-07
6.04392e-10
1.2003e-07
4.62911e-10
1.19691e-07
3.38795e-10
1.19468e-07
2.22997e-10
1.19359e-07
1.09432e-10
1.19358e-07
5.87472e-13
1.19459e-07
-1.01056e-10
1.19747e-07
-2.87974e-10
1.20149e-07
-4.01231e-10
-1.64809e-09
1.21797e-07
2.51392e-07
6.16322e-09
2.51286e-07
7.04262e-09
2.50836e-07
6.97092e-09
2.50198e-07
7.06691e-09
2.49338e-07
7.19269e-09
2.48281e-07
7.25928e-09
2.47051e-07
7.28151e-09
2.4567e-07
7.27453e-09
2.44151e-07
7.2516e-09
2.42508e-07
7.2114e-09
2.40756e-07
7.14619e-09
2.38922e-07
7.06618e-09
2.37032e-07
6.97951e-09
2.35094e-07
6.87515e-09
2.33105e-07
6.74239e-09
2.31059e-07
6.57923e-09
2.28966e-07
6.39707e-09
2.26856e-07
6.20458e-09
2.24749e-07
5.99725e-09
2.22647e-07
5.76134e-09
2.20545e-07
5.47824e-09
2.18456e-07
5.14688e-09
2.16399e-07
4.78536e-09
2.14392e-07
4.40924e-09
2.12444e-07
4.02575e-09
2.10558e-07
3.64521e-09
2.08749e-07
3.27105e-09
2.07025e-07
2.91868e-09
2.05386e-07
2.6031e-09
2.03834e-07
2.32169e-09
2.02369e-07
2.06957e-09
2.00991e-07
1.84049e-09
1.99702e-07
1.62783e-09
1.98501e-07
1.42424e-09
1.97388e-07
1.22215e-09
1.96376e-07
1.01247e-09
1.95496e-07
7.79516e-10
1.94764e-07
4.43812e-10
1.9434e-07
2.22351e-11
-1.24183e-09
1.93934e-07
2.51317e-07
4.84583e-09
2.51895e-07
6.46504e-09
2.52314e-07
6.55207e-09
2.5262e-07
6.76074e-09
2.52816e-07
6.99629e-09
2.52948e-07
7.1277e-09
2.53035e-07
7.19433e-09
2.53081e-07
7.22857e-09
2.53082e-07
7.25066e-09
2.53037e-07
7.25652e-09
2.52947e-07
7.23565e-09
2.52809e-07
7.20476e-09
2.52618e-07
7.17091e-09
2.52373e-07
7.11952e-09
2.52072e-07
7.04303e-09
2.5171e-07
6.94149e-09
2.51286e-07
6.82108e-09
2.50809e-07
6.68171e-09
2.50284e-07
6.52226e-09
2.49706e-07
6.33897e-09
2.49063e-07
6.12125e-09
2.48345e-07
5.86505e-09
2.47554e-07
5.57662e-09
2.46696e-07
5.26767e-09
2.45774e-07
4.94722e-09
2.44793e-07
4.62671e-09
2.43752e-07
4.31121e-09
2.42665e-07
4.0065e-09
2.41548e-07
3.72016e-09
2.40414e-07
3.45568e-09
2.39272e-07
3.2112e-09
2.38132e-07
2.98031e-09
2.37003e-07
2.7568e-09
2.35894e-07
2.53374e-09
2.34814e-07
2.30194e-09
2.33777e-07
2.04952e-09
2.32804e-07
1.75215e-09
2.31911e-07
1.33739e-09
2.31174e-07
7.58664e-10
-4.56875e-10
2.30389e-07
2.51035e-07
3.81051e-09
2.51709e-07
5.79157e-09
2.52215e-07
6.04564e-09
2.52639e-07
6.33701e-09
2.53014e-07
6.62134e-09
2.53359e-07
6.78257e-09
2.53686e-07
6.86776e-09
2.53995e-07
6.91955e-09
2.54297e-07
6.94829e-09
2.54599e-07
6.95412e-09
2.54874e-07
6.96148e-09
2.55113e-07
6.96517e-09
2.55338e-07
6.94601e-09
2.55549e-07
6.90899e-09
2.55741e-07
6.85102e-09
2.55911e-07
6.77152e-09
2.56056e-07
6.67518e-09
2.5618e-07
6.55853e-09
2.56279e-07
6.4229e-09
2.5635e-07
6.26777e-09
2.5639e-07
6.08162e-09
2.56393e-07
5.86175e-09
2.56356e-07
5.61363e-09
2.56277e-07
5.34723e-09
2.56153e-07
5.071e-09
2.55985e-07
4.79448e-09
2.55771e-07
4.52517e-09
2.55509e-07
4.26831e-09
2.55202e-07
4.02697e-09
2.54855e-07
3.80327e-09
2.5447e-07
3.59562e-09
2.54053e-07
3.39816e-09
2.53605e-07
3.20414e-09
2.53134e-07
3.00487e-09
2.52646e-07
2.79042e-09
2.52148e-07
2.54702e-09
2.51654e-07
2.24609e-09
2.51173e-07
1.81885e-09
2.5073e-07
1.20179e-09
8.0842e-11
2.50192e-07
2.50806e-07
3.00459e-09
2.51456e-07
5.1417e-09
2.51969e-07
5.53278e-09
2.52428e-07
5.87716e-09
2.52859e-07
6.19052e-09
2.5327e-07
6.37145e-09
2.53669e-07
6.46951e-09
2.54057e-07
6.53159e-09
2.54436e-07
6.56908e-09
2.54807e-07
6.583e-09
2.55173e-07
6.59524e-09
2.55533e-07
6.6052e-09
2.55884e-07
6.59527e-09
2.56226e-07
6.56694e-09
2.56558e-07
6.51913e-09
2.56879e-07
6.45088e-09
2.57193e-07
6.36039e-09
2.57492e-07
6.25966e-09
2.57767e-07
6.14766e-09
2.58028e-07
6.00743e-09
2.58272e-07
5.8376e-09
2.58495e-07
5.63833e-09
2.58695e-07
5.41427e-09
2.58868e-07
5.17377e-09
2.59015e-07
4.92418e-09
2.59136e-07
4.6734e-09
2.59232e-07
4.42874e-09
2.59305e-07
4.19567e-09
2.59355e-07
3.9771e-09
2.59384e-07
3.77449e-09
2.59393e-07
3.58607e-09
2.59385e-07
3.40666e-09
2.59359e-07
3.22967e-09
2.59318e-07
3.04578e-09
2.59265e-07
2.84369e-09
2.59204e-07
2.60756e-09
2.59142e-07
2.30846e-09
2.59078e-07
1.883e-09
2.59012e-07
1.26806e-09
2.48539e-10
2.58844e-07
2.50605e-07
2.39938e-09
2.51212e-07
4.53499e-09
2.51709e-07
5.03585e-09
2.52178e-07
5.40828e-09
2.52631e-07
5.7371e-09
2.53071e-07
5.9317e-09
2.53501e-07
6.03918e-09
2.53924e-07
6.10862e-09
2.5434e-07
6.15289e-09
2.54749e-07
6.17399e-09
2.55155e-07
6.18939e-09
2.55559e-07
6.20124e-09
2.55958e-07
6.19606e-09
2.56352e-07
6.17332e-09
2.56739e-07
6.13246e-09
2.57117e-07
6.07282e-09
2.57485e-07
5.99243e-09
2.57844e-07
5.9006e-09
2.58193e-07
5.7984e-09
2.58529e-07
5.67134e-09
2.5885e-07
5.51647e-09
2.59154e-07
5.3347e-09
2.59438e-07
5.13025e-09
2.59701e-07
4.91044e-09
2.59943e-07
4.68204e-09
2.60165e-07
4.45194e-09
2.60367e-07
4.22667e-09
2.60551e-07
4.01126e-09
2.6072e-07
3.80846e-09
2.60875e-07
3.6194e-09
2.61019e-07
3.44233e-09
2.61153e-07
3.27238e-09
2.6128e-07
3.10303e-09
2.614e-07
2.92496e-09
2.61518e-07
2.72621e-09
2.61636e-07
2.48988e-09
2.61756e-07
2.18783e-09
2.61876e-07
1.76338e-09
2.61985e-07
1.15924e-09
2.28572e-10
2.62005e-07
2.50459e-07
1.94083e-09
2.51012e-07
3.98157e-09
2.51483e-07
4.56514e-09
2.51943e-07
4.94842e-09
2.52399e-07
5.28021e-09
2.52849e-07
5.48184e-09
2.53294e-07
5.59447e-09
2.53735e-07
5.66803e-09
2.54171e-07
5.7167e-09
2.54602e-07
5.74312e-09
2.5503e-07
5.76121e-09
2.55457e-07
5.77428e-09
2.55881e-07
5.77227e-09
2.563e-07
5.75372e-09
2.56714e-07
5.71838e-09
2.57121e-07
5.66578e-09
2.57519e-07
5.59445e-09
2.57909e-07
5.51094e-09
2.58291e-07
5.41663e-09
2.58662e-07
5.30048e-09
2.59019e-07
5.15899e-09
2.59361e-07
4.99307e-09
2.59685e-07
4.80642e-09
2.5999e-07
4.60538e-09
2.60276e-07
4.39612e-09
2.60543e-07
4.18481e-09
2.60792e-07
3.97719e-09
2.61026e-07
3.77773e-09
2.61245e-07
3.58887e-09
2.61453e-07
3.41139e-09
2.61652e-07
3.24353e-09
2.61844e-07
3.08063e-09
2.62031e-07
2.91621e-09
2.62214e-07
2.74113e-09
2.62397e-07
2.54322e-09
2.62582e-07
2.3053e-09
2.62769e-07
2.00041e-09
2.62954e-07
1.57864e-09
2.63123e-07
9.9001e-10
1.35018e-10
2.63217e-07
2.50354e-07
1.587e-09
2.50854e-07
3.48125e-09
2.51298e-07
4.12177e-09
2.51742e-07
4.50443e-09
2.52192e-07
4.82966e-09
2.52642e-07
5.03233e-09
2.5309e-07
5.1462e-09
2.53537e-07
5.22069e-09
2.53983e-07
5.27115e-09
2.54425e-07
5.30064e-09
2.54866e-07
5.32037e-09
2.55306e-07
5.3341e-09
2.55744e-07
5.33434e-09
2.56179e-07
5.31921e-09
2.56608e-07
5.28857e-09
2.57032e-07
5.24209e-09
2.57448e-07
5.17876e-09
2.57856e-07
5.10316e-09
2.58256e-07
5.01651e-09
2.58646e-07
4.91039e-09
2.59023e-07
4.78133e-09
2.59386e-07
4.6302e-09
2.59733e-07
4.46021e-09
2.60061e-07
4.27681e-09
2.60372e-07
4.08558e-09
2.60665e-07
3.89197e-09
2.60941e-07
3.70106e-09
2.61202e-07
3.51676e-09
2.61449e-07
3.34115e-09
2.61686e-07
3.17468e-09
2.61914e-07
3.0155e-09
2.62136e-07
2.85912e-09
2.62353e-07
2.69914e-09
2.62567e-07
2.52658e-09
2.62781e-07
2.32941e-09
2.62996e-07
2.09057e-09
2.63211e-07
1.78465e-09
2.63422e-07
1.36812e-09
2.63614e-07
7.98435e-10
9.09349e-12
2.6374e-07
2.50278e-07
1.30891e-09
2.50725e-07
3.03389e-09
2.51147e-07
3.70045e-09
2.51575e-07
4.07623e-09
2.52016e-07
4.3884e-09
2.52461e-07
4.58762e-09
2.52907e-07
4.69994e-09
2.53355e-07
4.77294e-09
2.53803e-07
4.82301e-09
2.5425e-07
4.85354e-09
2.54697e-07
4.87367e-09
2.55144e-07
4.88729e-09
2.55589e-07
4.8889e-09
2.56032e-07
4.87643e-09
2.56471e-07
4.84977e-09
2.56904e-07
4.80868e-09
2.5733e-07
4.75248e-09
2.57749e-07
4.68433e-09
2.58161e-07
4.60522e-09
2.58562e-07
4.50869e-09
2.58952e-07
4.3915e-09
2.59328e-07
4.25441e-09
2.59688e-07
4.10026e-09
2.60031e-07
3.93369e-09
2.60357e-07
3.75967e-09
2.60666e-07
3.58302e-09
2.60959e-07
3.40818e-09
2.61237e-07
3.23851e-09
2.61502e-07
3.07574e-09
2.61757e-07
2.92003e-09
2.62003e-07
2.76943e-09
2.62243e-07
2.61957e-09
2.62478e-07
2.46413e-09
2.6271e-07
2.29436e-09
2.62941e-07
2.09847e-09
2.63171e-07
1.85989e-09
2.63401e-07
1.55496e-09
2.63623e-07
1.14605e-09
2.63824e-07
5.97554e-10
-1.33682e-10
2.63967e-07
2.50223e-07
1.08609e-09
2.50623e-07
2.63325e-09
2.51025e-07
3.29912e-09
2.51438e-07
3.66269e-09
2.5187e-07
3.95694e-09
2.52308e-07
4.14895e-09
2.52751e-07
4.25766e-09
2.53196e-07
4.32756e-09
2.53643e-07
4.37573e-09
2.54091e-07
4.40582e-09
2.54539e-07
4.42536e-09
2.54989e-07
4.43822e-09
2.55437e-07
4.44041e-09
2.55884e-07
4.42991e-09
2.56327e-07
4.40656e-09
2.56765e-07
4.3702e-09
2.57197e-07
4.32034e-09
2.57622e-07
4.25917e-09
2.5804e-07
4.18741e-09
2.58449e-07
4.1001e-09
2.58846e-07
3.99433e-09
2.5923e-07
3.87069e-09
2.59598e-07
3.73169e-09
2.59951e-07
3.58128e-09
2.60287e-07
3.42382e-09
2.60606e-07
3.26353e-09
2.6091e-07
3.10423e-09
2.612e-07
2.94879e-09
2.61477e-07
2.79859e-09
2.61743e-07
2.6535e-09
2.62001e-07
2.51147e-09
2.62253e-07
2.36825e-09
2.62499e-07
2.21765e-09
2.62742e-07
2.05115e-09
2.62984e-07
1.85729e-09
2.63223e-07
1.62026e-09
2.6346e-07
1.31823e-09
2.63687e-07
9.1893e-10
2.63892e-07
3.92906e-10
-2.8608e-10
2.64044e-07
2.50182e-07
9.03986e-10
2.50543e-07
2.27271e-09
2.50926e-07
2.91603e-09
2.51326e-07
3.26209e-09
2.51748e-07
3.53477e-09
2.52181e-07
3.71627e-09
2.52619e-07
3.81965e-09
2.53061e-07
3.88533e-09
2.53507e-07
3.93062e-09
2.53953e-07
3.95929e-09
2.54401e-07
3.97762e-09
2.5485e-07
3.98931e-09
2.55299e-07
3.99156e-09
2.55746e-07
3.9825e-09
2.56191e-07
3.96192e-09
2.56631e-07
3.92974e-09
2.57066e-07
3.88558e-09
2.57494e-07
3.83095e-09
2.57915e-07
3.76634e-09
2.58327e-07
3.68791e-09
2.58729e-07
3.59312e-09
2.59117e-07
3.48242e-09
2.5949e-07
3.35796e-09
2.59849e-07
3.22312e-09
2.60191e-07
3.08164e-09
2.60517e-07
2.93718e-09
2.60828e-07
2.79298e-09
2.61126e-07
2.65142e-09
2.61411e-07
2.51355e-09
2.61685e-07
2.37898e-09
2.61951e-07
2.24557e-09
2.6221e-07
2.10917e-09
2.62464e-07
1.96373e-09
2.62714e-07
1.80101e-09
2.62962e-07
1.60999e-09
2.63206e-07
1.37572e-09
2.63446e-07
1.07826e-09
2.63675e-07
6.9013e-10
2.63881e-07
1.87343e-10
-4.44866e-10
2.64039e-07
2.50152e-07
7.52038e-10
2.50478e-07
1.94616e-09
2.50845e-07
2.54952e-09
2.51234e-07
2.87273e-09
2.51648e-07
3.12104e-09
2.52075e-07
3.28914e-09
2.52509e-07
3.3856e-09
2.52948e-07
3.44619e-09
2.53391e-07
3.48789e-09
2.53836e-07
3.51452e-09
2.54282e-07
3.53128e-09
2.5473e-07
3.54161e-09
2.55178e-07
3.54363e-09
2.55625e-07
3.53568e-09
2.56069e-07
3.51754e-09
2.5651e-07
3.48915e-09
2.56945e-07
3.45023e-09
2.57374e-07
3.40179e-09
2.57796e-07
3.34414e-09
2.5821e-07
3.27432e-09
2.58613e-07
3.19015e-09
2.59003e-07
3.09194e-09
2.5938e-07
2.98151e-09
2.59741e-07
2.8617e-09
2.60087e-07
2.7357e-09
2.60418e-07
2.6066e-09
2.60734e-07
2.47711e-09
2.61036e-07
2.34913e-09
2.61326e-07
2.22338e-09
2.61606e-07
2.09924e-09
2.61877e-07
1.97451e-09
2.62141e-07
1.84511e-09
2.624e-07
1.70517e-09
2.62654e-07
1.54674e-09
2.62905e-07
1.35934e-09
2.63151e-07
1.12895e-09
2.63392e-07
8.37526e-10
2.6362e-07
4.61749e-10
2.63825e-07
-1.75457e-11
-6.07266e-10
2.63988e-07
2.5013e-07
6.22498e-10
2.50428e-07
1.64807e-09
2.50779e-07
2.19787e-09
2.51159e-07
2.49307e-09
2.51565e-07
2.71478e-09
2.51987e-07
2.86696e-09
2.52418e-07
2.95502e-09
2.52854e-07
3.00979e-09
2.53295e-07
3.04736e-09
2.53738e-07
3.07148e-09
2.54183e-07
3.08645e-09
2.54629e-07
3.09538e-09
2.55076e-07
3.09706e-09
2.55521e-07
3.09007e-09
2.55965e-07
3.07417e-09
2.56404e-07
3.04934e-09
2.56839e-07
3.01535e-09
2.57268e-07
2.97288e-09
2.5769e-07
2.9221e-09
2.58104e-07
2.86071e-09
2.58507e-07
2.78687e-09
2.58898e-07
2.70078e-09
2.59276e-07
2.60396e-09
2.59639e-07
2.49874e-09
2.59987e-07
2.38778e-09
2.6032e-07
2.27364e-09
2.60638e-07
2.15851e-09
2.60943e-07
2.04385e-09
2.61237e-07
1.93007e-09
2.6152e-07
1.81632e-09
2.61794e-07
1.70033e-09
2.62061e-07
1.57811e-09
2.62322e-07
1.444e-09
2.62578e-07
1.29037e-09
2.6283e-07
1.1073e-09
2.63078e-07
8.81776e-10
2.63318e-07
5.9759e-10
2.63544e-07
2.35071e-10
2.63747e-07
-2.20819e-10
-7.71619e-10
2.63912e-07
2.50113e-07
5.09643e-10
2.50387e-07
1.37343e-09
2.50726e-07
1.85932e-09
2.51097e-07
2.12174e-09
2.51497e-07
2.31503e-09
2.51915e-07
2.44916e-09
2.52343e-07
2.52743e-09
2.52777e-07
2.57569e-09
2.53215e-07
2.6087e-09
2.53657e-07
2.62997e-09
2.541e-07
2.64301e-09
2.54545e-07
2.65055e-09
2.5499e-07
2.65186e-09
2.55435e-07
2.64576e-09
2.55877e-07
2.63203e-09
2.56315e-07
2.61063e-09
2.56749e-07
2.58141e-09
2.57177e-07
2.54479e-09
2.57599e-07
2.50083e-09
2.58012e-07
2.44777e-09
2.58414e-07
2.38407e-09
2.58805e-07
2.30983e-09
2.59183e-07
2.22629e-09
2.59547e-07
2.13532e-09
2.59895e-07
2.03906e-09
2.60229e-07
1.93957e-09
2.60549e-07
1.83853e-09
2.60856e-07
1.737e-09
2.61151e-07
1.63506e-09
2.61436e-07
1.53168e-09
2.61712e-07
1.4245e-09
2.6198e-07
1.30967e-09
2.62242e-07
1.1817e-09
2.62499e-07
1.03337e-09
2.62751e-07
8.55303e-10
2.62998e-07
6.35535e-10
2.63236e-07
3.596e-10
2.6346e-07
1.09964e-11
2.63661e-07
-4.21838e-10
-9.36752e-10
2.63826e-07
2.501e-07
4.0919e-10
2.50356e-07
1.11782e-09
2.50683e-07
1.53207e-09
2.51048e-07
1.75745e-09
2.51442e-07
1.92081e-09
2.51856e-07
2.03511e-09
2.52281e-07
2.10235e-09
2.52713e-07
2.14353e-09
2.5315e-07
2.17159e-09
2.5359e-07
2.18971e-09
2.54033e-07
2.20071e-09
2.54476e-07
2.20689e-09
2.5492e-07
2.20785e-09
2.55364e-07
2.20264e-09
2.55805e-07
2.19104e-09
2.56242e-07
2.17303e-09
2.56675e-07
2.14849e-09
2.57102e-07
2.11766e-09
2.57522e-07
2.08053e-09
2.57934e-07
2.03576e-09
2.58336e-07
1.98209e-09
2.58727e-07
1.91953e-09
2.59104e-07
1.84903e-09
2.59467e-07
1.77204e-09
2.59816e-07
1.69024e-09
2.60151e-07
1.60515e-09
2.60471e-07
1.51802e-09
2.60779e-07
1.42948e-09
2.61074e-07
1.33931e-09
2.6136e-07
1.24631e-09
2.61636e-07
1.14808e-09
2.61905e-07
1.04084e-09
2.62167e-07
9.19353e-10
2.62424e-07
7.76763e-10
2.62675e-07
6.04328e-10
2.62919e-07
3.91091e-10
2.63155e-07
1.24233e-10
2.63376e-07
-2.09994e-10
2.63574e-07
-6.20245e-10
-1.10191e-09
2.63739e-07
2.50091e-07
3.17882e-10
2.50332e-07
8.77275e-10
2.5065e-07
1.21427e-09
2.51008e-07
1.39899e-09
2.51398e-07
1.53116e-09
2.51809e-07
1.62423e-09
2.52232e-07
1.67934e-09
2.52662e-07
1.71292e-09
2.53098e-07
1.73572e-09
2.53537e-07
1.75046e-09
2.53979e-07
1.75933e-09
2.54421e-07
1.76418e-09
2.54864e-07
1.76481e-09
2.55307e-07
1.76049e-09
2.55747e-07
1.75102e-09
2.56183e-07
1.7364e-09
2.56615e-07
1.71649e-09
2.57041e-07
1.69144e-09
2.57461e-07
1.66119e-09
2.57872e-07
1.62471e-09
2.58273e-07
1.58099e-09
2.58663e-07
1.52999e-09
2.59039e-07
1.47238e-09
2.59402e-07
1.40922e-09
2.59751e-07
1.34168e-09
2.60085e-07
1.27085e-09
2.60405e-07
1.19749e-09
2.60713e-07
1.12186e-09
2.61009e-07
1.04345e-09
2.61294e-07
9.60885e-10
2.61571e-07
8.71727e-10
2.61839e-07
7.72308e-10
2.62101e-07
6.57637e-10
2.62356e-07
5.21249e-10
2.62606e-07
3.55031e-10
2.62848e-07
1.49027e-10
2.6308e-07
-1.08055e-10
2.63298e-07
-4.27598e-10
2.63493e-07
-8.15844e-10
-1.26657e-09
2.63658e-07
2.50085e-07
2.33184e-10
2.50314e-07
6.48287e-10
2.50624e-07
9.04053e-10
2.50978e-07
1.04517e-09
2.51364e-07
1.14517e-09
2.51772e-07
1.21588e-09
2.52193e-07
1.25799e-09
2.52623e-07
1.28353e-09
2.53058e-07
1.30082e-09
2.53496e-07
1.312e-09
2.53937e-07
1.31865e-09
2.54379e-07
1.32218e-09
2.54821e-07
1.32251e-09
2.55263e-07
1.3191e-09
2.55702e-07
1.31178e-09
2.56138e-07
1.30053e-09
2.56569e-07
1.28525e-09
2.56994e-07
1.26599e-09
2.57413e-07
1.24265e-09
2.57823e-07
1.21448e-09
2.58223e-07
1.1807e-09
2.58612e-07
1.14119e-09
2.58988e-07
1.09637e-09
2.59351e-07
1.0469e-09
2.59699e-07
9.93523e-10
2.60033e-07
9.36845e-10
2.60353e-07
8.77197e-10
2.6066e-07
8.14446e-10
2.60956e-07
7.47826e-10
2.61241e-07
6.75789e-10
2.61517e-07
5.95872e-10
2.61785e-07
5.04521e-10
2.62045e-07
3.96998e-10
2.62299e-07
2.67246e-10
2.62547e-07
1.07784e-10
2.62786e-07
-9.03811e-11
2.63015e-07
-3.37125e-10
2.63229e-07
-6.41787e-10
2.63422e-07
-1.00863e-09
-1.43043e-09
2.63586e-07
2.5008e-07
1.53064e-10
2.50301e-07
4.27662e-10
2.50605e-07
5.99517e-10
2.50956e-07
6.94816e-10
2.51339e-07
7.61884e-10
2.51745e-07
8.09442e-10
2.52165e-07
8.37865e-10
2.52594e-07
8.55048e-10
2.53028e-07
8.66628e-10
2.53466e-07
8.74091e-10
2.53906e-07
8.78469e-10
2.54348e-07
8.807e-10
2.54789e-07
8.80752e-10
2.5523e-07
8.78263e-10
2.55669e-07
8.73105e-10
2.56104e-07
8.65241e-10
2.56535e-07
8.54582e-10
2.5696e-07
8.41114e-10
2.57378e-07
8.24738e-10
2.57787e-07
8.04908e-10
2.58187e-07
7.81049e-10
2.58575e-07
7.52998e-10
2.58951e-07
7.20909e-10
2.59312e-07
6.85077e-10
2.5966e-07
6.45796e-10
2.59994e-07
6.03226e-10
2.60314e-07
5.57264e-10
2.60621e-07
5.07413e-10
2.60916e-07
4.52638e-10
2.612e-07
3.91243e-10
2.61476e-07
3.20745e-10
2.61742e-07
2.37714e-10
2.62002e-07
1.37669e-10
2.62254e-07
1.49744e-11
2.62499e-07
-1.37226e-10
2.62736e-07
-3.26997e-10
2.62961e-07
-5.62926e-10
2.63172e-07
-8.52603e-10
2.63362e-07
-1.19867e-09
-1.59334e-09
2.63525e-07
2.50077e-07
7.58269e-11
2.50292e-07
2.12473e-10
2.50593e-07
2.98773e-10
2.50941e-07
3.46771e-10
2.51323e-07
3.80408e-10
2.51728e-07
4.04284e-10
2.52147e-07
4.18567e-10
2.52575e-07
4.27158e-10
2.53009e-07
4.32905e-10
2.53446e-07
4.36559e-10
2.53886e-07
4.38624e-10
2.54327e-07
4.3956e-10
2.54769e-07
4.39346e-10
2.55209e-07
4.37789e-10
2.55647e-07
4.34799e-10
2.56082e-07
4.30328e-10
2.56513e-07
4.24295e-10
2.56937e-07
4.1664e-10
2.57355e-07
4.07251e-10
2.57764e-07
3.95786e-10
2.58163e-07
3.81857e-10
2.58551e-07
3.65248e-10
2.58926e-07
3.45869e-10
2.59287e-07
3.23646e-10
2.59635e-07
2.98443e-10
2.59968e-07
2.69973e-10
2.60287e-07
2.37714e-10
2.60594e-07
2.00811e-10
2.60889e-07
1.57968e-10
2.61172e-07
1.07352e-10
2.61447e-07
4.64655e-11
2.61712e-07
-2.79918e-11
2.6197e-07
-1.20235e-10
2.62221e-07
-2.35477e-10
2.62464e-07
-3.79956e-10
2.62697e-07
-5.60862e-10
2.6292e-07
-7.85601e-10
2.63128e-07
-1.06026e-09
2.63315e-07
-1.38616e-09
-1.75526e-09
2.63477e-07
2.50076e-07
-1.52272e-14
2.50288e-07
-4.57919e-14
2.50587e-07
-7.88539e-14
2.50934e-07
-1.19031e-13
2.51315e-07
-1.69712e-13
2.51719e-07
-2.35275e-13
2.52138e-07
-3.21376e-13
2.52566e-07
-4.35474e-13
2.52999e-07
-5.87219e-13
2.53437e-07
-7.89122e-13
2.53876e-07
-1.05749e-12
2.54317e-07
-1.41315e-12
2.54758e-07
-1.88296e-12
2.55199e-07
-2.50211e-12
2.55637e-07
-3.31737e-12
2.56072e-07
-4.38768e-12
2.56502e-07
-5.78968e-12
2.56926e-07
-7.62165e-12
2.57343e-07
-1.0001e-11
2.57752e-07
-1.30815e-11
2.58151e-07
-1.70696e-11
2.58538e-07
-2.22287e-11
2.58913e-07
-2.88949e-11
2.59274e-07
-3.75014e-11
2.59621e-07
-4.86123e-11
2.59954e-07
-6.29531e-11
2.60273e-07
-8.14605e-11
2.6058e-07
-1.05343e-10
2.60874e-07
-1.36147e-10
2.61157e-07
-1.75841e-10
2.6143e-07
-2.26921e-10
2.61695e-07
-2.92555e-10
2.61951e-07
-3.76687e-10
2.622e-07
-4.84104e-10
2.6244e-07
-6.20437e-10
2.62672e-07
-7.92046e-10
2.62891e-07
-1.00528e-09
2.63096e-07
-1.26493e-09
2.63281e-07
-1.57128e-09
-1.9162e-09
2.63442e-07
2.50076e-07
-7.58567e-11
2.50288e-07
-2.12563e-10
2.50587e-07
-2.98929e-10
2.50934e-07
-3.47007e-10
2.51315e-07
-3.80745e-10
2.51719e-07
-4.04752e-10
2.52138e-07
-4.19206e-10
2.52566e-07
-4.28025e-10
2.52999e-07
-4.34075e-10
2.53436e-07
-4.38132e-10
2.53876e-07
-4.40732e-10
2.54317e-07
-4.42378e-10
2.54758e-07
-4.43102e-10
2.55199e-07
-4.4278e-10
2.55637e-07
-4.41417e-10
2.56071e-07
-4.39082e-10
2.56501e-07
-4.35847e-10
2.56926e-07
-4.31848e-10
2.57343e-07
-4.27209e-10
2.57752e-07
-4.21892e-10
2.58151e-07
-4.15923e-10
2.58538e-07
-4.09612e-10
2.58913e-07
-4.03538e-10
2.59274e-07
-3.98494e-10
2.5962e-07
-3.95468e-10
2.59953e-07
-3.95621e-10
2.60272e-07
-4.00302e-10
2.60578e-07
-4.11066e-10
2.60871e-07
-4.29708e-10
2.61154e-07
-4.58321e-10
2.61426e-07
-4.99397e-10
2.6169e-07
-5.55963e-10
2.61945e-07
-6.31686e-10
2.62191e-07
-7.30934e-10
2.6243e-07
-8.5874e-10
2.62658e-07
-1.0207e-09
2.62875e-07
-1.22217e-09
2.63077e-07
-1.46688e-09
2.6326e-07
-1.75424e-09
-2.07622e-09
2.6342e-07
2.50077e-07
-1.53094e-10
2.50292e-07
-4.27753e-10
2.50593e-07
-5.99673e-10
2.50941e-07
-6.95051e-10
2.51323e-07
-7.6222e-10
2.51728e-07
-8.09907e-10
2.52147e-07
-8.385e-10
2.52575e-07
-8.55909e-10
2.53009e-07
-8.6779e-10
2.53446e-07
-8.75653e-10
2.53886e-07
-8.80562e-10
2.54327e-07
-8.83498e-10
2.54769e-07
-8.8448e-10
2.55209e-07
-8.83218e-10
2.55647e-07
-8.79675e-10
2.56082e-07
-8.73933e-10
2.56512e-07
-8.66054e-10
2.56937e-07
-8.56221e-10
2.57354e-07
-8.44563e-10
2.57763e-07
-8.30843e-10
2.58162e-07
-8.14895e-10
2.58549e-07
-7.97077e-10
2.58924e-07
-7.78212e-10
2.59285e-07
-7.59452e-10
2.59632e-07
-7.42212e-10
2.59964e-07
-7.28088e-10
2.60283e-07
-7.18839e-10
2.60588e-07
-7.16366e-10
2.60881e-07
-7.22708e-10
2.61163e-07
-7.40076e-10
2.61434e-07
-7.70951e-10
2.61697e-07
-8.1821e-10
2.6195e-07
-8.85247e-10
2.62195e-07
-9.76001e-10
2.62431e-07
-1.09493e-09
2.62658e-07
-1.2469e-09
2.62872e-07
-1.43642e-09
2.63071e-07
-1.66626e-09
2.63252e-07
-1.93519e-09
-2.23533e-09
2.63411e-07
2.5008e-07
-2.33213e-10
2.50301e-07
-6.48374e-10
2.50605e-07
-9.04205e-10
2.50956e-07
-1.0454e-09
2.51339e-07
-1.1455e-09
2.51745e-07
-1.21634e-09
2.52165e-07
-1.25861e-09
2.52594e-07
-1.28438e-09
2.53028e-07
-1.30196e-09
2.53466e-07
-1.31353e-09
2.53906e-07
-1.32071e-09
2.54348e-07
-1.32494e-09
2.54789e-07
-1.32619e-09
2.5523e-07
-1.32399e-09
2.55669e-07
-1.31827e-09
2.56104e-07
-1.30912e-09
2.56534e-07
-1.29659e-09
2.56959e-07
-1.28092e-09
2.57377e-07
-1.26226e-09
2.57786e-07
-1.24013e-09
2.58185e-07
-1.21418e-09
2.58573e-07
-1.1848e-09
2.58948e-07
-1.15307e-09
2.59309e-07
-1.1205e-09
2.59656e-07
-1.08893e-09
2.59988e-07
-1.06041e-09
2.60306e-07
-1.0371e-09
2.60611e-07
-1.02124e-09
2.60904e-07
-1.01513e-09
2.61185e-07
-1.02107e-09
2.61455e-07
-1.04154e-09
2.61716e-07
-1.07926e-09
2.61968e-07
-1.13734e-09
2.62212e-07
-1.2193e-09
2.62446e-07
-1.32904e-09
2.62669e-07
-1.47074e-09
2.62881e-07
-1.64815e-09
2.63078e-07
-1.86322e-09
2.63257e-07
-2.11421e-09
-2.39349e-09
2.63415e-07
2.50085e-07
-3.17911e-10
2.50314e-07
-8.77363e-10
2.50624e-07
-1.21442e-09
2.50978e-07
-1.39922e-09
2.51364e-07
-1.53149e-09
2.51772e-07
-1.62468e-09
2.52193e-07
-1.67995e-09
2.52623e-07
-1.71375e-09
2.53058e-07
-1.73684e-09
2.53496e-07
-1.75198e-09
2.53937e-07
-1.76135e-09
2.54379e-07
-1.76689e-09
2.54821e-07
-1.76842e-09
2.55262e-07
-1.7653e-09
2.55701e-07
-1.7574e-09
2.56137e-07
-1.74484e-09
2.56568e-07
-1.72764e-09
2.56993e-07
-1.70614e-09
2.57412e-07
-1.68049e-09
2.57821e-07
-1.64996e-09
2.58221e-07
-1.61396e-09
2.58609e-07
-1.57295e-09
2.58984e-07
-1.52824e-09
2.59346e-07
-1.48172e-09
2.59692e-07
-1.43568e-09
2.60025e-07
-1.39259e-09
2.60343e-07
-1.35505e-09
2.60647e-07
-1.32564e-09
2.60939e-07
-1.30688e-09
2.61219e-07
-1.30121e-09
2.61488e-07
-1.31106e-09
2.61748e-07
-1.339e-09
2.61999e-07
-1.38787e-09
2.6224e-07
-1.46075e-09
2.62472e-07
-1.561e-09
2.62693e-07
-1.69217e-09
2.62903e-07
-1.85733e-09
2.63097e-07
-2.05774e-09
2.63274e-07
-2.29126e-09
-2.55054e-09
2.63431e-07
2.50091e-07
-4.09218e-10
2.50332e-07
-1.1179e-09
2.5065e-07
-1.53222e-09
2.51008e-07
-1.75767e-09
2.51398e-07
-1.92112e-09
2.51809e-07
-2.03555e-09
2.52232e-07
-2.10294e-09
2.52662e-07
-2.14434e-09
2.53098e-07
-2.17268e-09
2.53537e-07
-2.19119e-09
2.53979e-07
-2.20269e-09
2.54421e-07
-2.20954e-09
2.54864e-07
-2.21138e-09
2.55306e-07
-2.20733e-09
2.55746e-07
-2.19727e-09
2.56183e-07
-2.18129e-09
2.56614e-07
-2.1594e-09
2.5704e-07
-2.13205e-09
2.57459e-07
-2.09944e-09
2.5787e-07
-2.06051e-09
2.5827e-07
-2.0144e-09
2.58659e-07
-1.96164e-09
2.59034e-07
-1.9038e-09
2.59396e-07
-1.84315e-09
2.59743e-07
-1.78244e-09
2.60075e-07
-1.72458e-09
2.60392e-07
-1.67259e-09
2.60696e-07
-1.62941e-09
2.60987e-07
-1.5978e-09
2.61266e-07
-1.5803e-09
2.61534e-07
-1.5793e-09
2.61792e-07
-1.59723e-09
2.62041e-07
-1.63661e-09
2.6228e-07
-1.70015e-09
2.6251e-07
-1.79062e-09
2.62729e-07
-1.91104e-09
2.62935e-07
-2.06383e-09
2.63127e-07
-2.24969e-09
2.63302e-07
-2.46614e-09
-2.70617e-09
2.63458e-07
2.501e-07
-5.0967e-10
2.50356e-07
-1.37351e-09
2.50683e-07
-1.85946e-09
2.51048e-07
-2.12195e-09
2.51442e-07
-2.31533e-09
2.51856e-07
-2.44958e-09
2.52281e-07
-2.52801e-09
2.52713e-07
-2.57648e-09
2.5315e-07
-2.60976e-09
2.5359e-07
-2.6314e-09
2.54033e-07
-2.64493e-09
2.54476e-07
-2.65312e-09
2.5492e-07
-2.65529e-09
2.55363e-07
-2.65033e-09
2.55804e-07
-2.63809e-09
2.56241e-07
-2.61866e-09
2.56674e-07
-2.59203e-09
2.57101e-07
-2.55881e-09
2.5752e-07
-2.51926e-09
2.57932e-07
-2.4719e-09
2.58333e-07
-2.41559e-09
2.58722e-07
-2.35093e-09
2.59098e-07
-2.27975e-09
2.5946e-07
-2.20473e-09
2.59806e-07
-2.12908e-09
2.60138e-07
-2.05618e-09
2.60455e-07
-1.98946e-09
2.60758e-07
-1.93225e-09
2.61048e-07
-1.88753e-09
2.61325e-07
-1.85796e-09
2.61592e-07
-1.84587e-09
2.61848e-07
-1.85352e-09
2.62095e-07
-1.88318e-09
2.62331e-07
-1.93709e-09
2.62558e-07
-2.01752e-09
2.62774e-07
-2.12695e-09
2.62978e-07
-2.26726e-09
2.63167e-07
-2.43864e-09
2.63339e-07
-2.63842e-09
-2.85985e-09
2.63493e-07
2.50113e-07
-6.22524e-10
2.50387e-07
-1.64815e-09
2.50726e-07
-2.198e-09
2.51097e-07
-2.49327e-09
2.51497e-07
-2.71508e-09
2.51915e-07
-2.86737e-09
2.52342e-07
-2.95558e-09
2.52777e-07
-3.01054e-09
2.53215e-07
-3.04838e-09
2.53657e-07
-3.07286e-09
2.541e-07
-3.0883e-09
2.54545e-07
-3.09786e-09
2.5499e-07
-3.10037e-09
2.55434e-07
-3.09448e-09
2.55876e-07
-3.08003e-09
2.56314e-07
-3.0571e-09
2.56748e-07
-3.02563e-09
2.57176e-07
-2.98647e-09
2.57596e-07
-2.93997e-09
2.58009e-07
-2.88412e-09
2.5841e-07
-2.81747e-09
2.588e-07
-2.74068e-09
2.59176e-07
-2.65588e-09
2.59538e-07
-2.56617e-09
2.59884e-07
-2.47525e-09
2.60215e-07
-2.38695e-09
2.6053e-07
-2.30518e-09
2.60832e-07
-2.23362e-09
2.6112e-07
-2.17549e-09
2.61395e-07
-2.13356e-09
2.6166e-07
-2.11012e-09
2.61913e-07
-2.10722e-09
2.62157e-07
-2.12688e-09
2.62391e-07
-2.17091e-09
2.62614e-07
-2.24103e-09
2.62827e-07
-2.33926e-09
2.63026e-07
-2.467e-09
2.63212e-07
-2.62398e-09
2.63381e-07
-2.80739e-09
-3.01081e-09
2.63532e-07
2.5013e-07
-7.52063e-10
2.50428e-07
-1.94624e-09
2.50779e-07
-2.54965e-09
2.51159e-07
-2.87292e-09
2.51565e-07
-3.12132e-09
2.51987e-07
-3.28953e-09
2.52418e-07
-3.38613e-09
2.52854e-07
-3.44692e-09
2.53295e-07
-3.48887e-09
2.53738e-07
-3.51583e-09
2.54182e-07
-3.53305e-09
2.54629e-07
-3.54398e-09
2.55075e-07
-3.5468e-09
2.5552e-07
-3.53991e-09
2.55964e-07
-3.52317e-09
2.56403e-07
-3.49661e-09
2.56838e-07
-3.46012e-09
2.57266e-07
-3.41489e-09
2.57687e-07
-3.36138e-09
2.581e-07
-3.29691e-09
2.58502e-07
-3.21969e-09
2.58892e-07
-3.13048e-09
2.59268e-07
-3.03168e-09
2.59629e-07
-2.92686e-09
2.59974e-07
-2.82024e-09
2.60303e-07
-2.71614e-09
2.60617e-07
-2.6189e-09
2.60916e-07
-2.53261e-09
2.61201e-07
-2.46074e-09
2.61473e-07
-2.40614e-09
2.61734e-07
-2.37104e-09
2.61984e-07
-2.35733e-09
2.62224e-07
-2.36673e-09
2.62454e-07
-2.40061e-09
2.62673e-07
-2.46016e-09
2.62881e-07
-2.54698e-09
2.63076e-07
-2.66202e-09
2.63257e-07
-2.80468e-09
2.63421e-07
-2.972e-09
-3.15789e-09
2.63568e-07
2.50152e-07
-9.04009e-10
2.50478e-07
-2.27278e-09
2.50845e-07
-2.91616e-09
2.51234e-07
-3.26227e-09
2.51648e-07
-3.53504e-09
2.52075e-07
-3.71664e-09
2.52509e-07
-3.82016e-09
2.52948e-07
-3.88602e-09
2.53391e-07
-3.93154e-09
2.53836e-07
-3.96054e-09
2.54282e-07
-3.97931e-09
2.5473e-07
-3.99157e-09
2.55177e-07
-3.99458e-09
2.55624e-07
-3.98653e-09
2.56068e-07
-3.9673e-09
2.56508e-07
-3.93686e-09
2.56943e-07
-3.89503e-09
2.57372e-07
-3.8435e-09
2.57793e-07
-3.78286e-09
2.58206e-07
-3.70957e-09
2.58608e-07
-3.62147e-09
2.58997e-07
-3.51944e-09
2.59371e-07
-3.40616e-09
2.5973e-07
-3.28574e-09
2.60073e-07
-3.16292e-09
2.60399e-07
-3.04249e-09
2.6071e-07
-2.92932e-09
2.61005e-07
-2.82787e-09
2.61286e-07
-2.74187e-09
2.61554e-07
-2.67427e-09
2.6181e-07
-2.6272e-09
2.62055e-07
-2.60238e-09
2.6229e-07
-2.60127e-09
2.62514e-07
-2.62475e-09
2.62727e-07
-2.67349e-09
2.62929e-07
-2.7487e-09
2.63118e-07
-2.85096e-09
2.63293e-07
-2.97932e-09
2.63451e-07
-3.13078e-09
-3.29955e-09
2.63593e-07
2.50182e-07
-1.08611e-09
2.50543e-07
-2.63332e-09
2.50926e-07
-3.29923e-09
2.51326e-07
-3.66286e-09
2.51748e-07
-3.95719e-09
2.52181e-07
-4.14929e-09
2.52619e-07
-4.25813e-09
2.53061e-07
-4.3282e-09
2.53506e-07
-4.3766e-09
2.53953e-07
-4.40699e-09
2.544e-07
-4.42695e-09
2.54849e-07
-4.44035e-09
2.55298e-07
-4.44327e-09
2.55745e-07
-4.43373e-09
2.56189e-07
-4.41165e-09
2.5663e-07
-4.37695e-09
2.57064e-07
-4.32931e-09
2.57491e-07
-4.27111e-09
2.57912e-07
-4.20315e-09
2.58323e-07
-4.12075e-09
2.58723e-07
-4.02137e-09
2.59109e-07
-3.90602e-09
2.59481e-07
-3.77772e-09
2.59836e-07
-3.6411e-09
2.60175e-07
-3.50148e-09
2.60497e-07
-3.36417e-09
2.60802e-07
-3.23454e-09
2.61091e-07
-3.11747e-09
2.61366e-07
-3.01692e-09
2.61628e-07
-2.93597e-09
2.61877e-07
-2.87662e-09
2.62115e-07
-2.84041e-09
2.62343e-07
-2.82854e-09
2.62559e-07
-2.8414e-09
2.62765e-07
-2.87905e-09
2.62959e-07
-2.94245e-09
2.6314e-07
-3.03181e-09
2.63306e-07
-3.14589e-09
2.63457e-07
-3.28167e-09
-3.43364e-09
2.63591e-07
2.50223e-07
-1.30893e-09