/*--------------------------------*- C++ -*----------------------------------*\
| =========                 |                                                 |
| \\      /  F ield         | OpenFOAM: The Open Source CFD Toolbox           |
|  \\    /   O peration     | Version:  2306                                  |
|   \\  /    A nd           | Website:  www.openfoam.com                      |
|    \\/     M anipulation  |                                                 |
\*---------------------------------------------------------------------------*/
FoamFile
{
    version     2.0;
    format      ascii;
    arch        "LSB;label=32;scalar=64";
    class       volVectorField;
    location    "1500";
    object      U;
}
// * * * * * * * * * * * * * * * * * * * * * * * * * * * * * * * * * * * * * //

dimensions      [0 1 -1 0 0 0 0];

internalField   nonuniform List<vector> 
25600
(
(0.977307 0.00314284 0)
(0.95591 0.0058844 0)
(0.929884 0.00633988 0)
(0.903113 0.00648136 0)
(0.87732 0.00647212 0)
(0.852321 0.00634461 0)
(0.827858 0.00614667 0)
(0.803953 0.00590564 0)
(0.780682 0.00563751 0)
(0.758073 0.00535103 0)
(0.736139 0.00505522 0)
(0.714931 0.00471215 0)
(0.694284 0.00433221 0)
(0.674201 0.00398034 0)
(0.654785 0.00365478 0)
(0.636168 0.00332258 0)
(0.618529 0.00300853 0)
(0.601756 0.00274299 0)
(0.58576 0.00251584 0)
(0.570616 0.00229311 0)
(0.556485 0.00204632 0)
(0.543606 0.00177635 0)
(0.532037 0.00150269 0)
(0.521779 0.00124067 0)
(0.51282 0.000970916 0)
(0.505158 0.000701966 0)
(0.498747 0.000466601 0)
(0.493472 0.000274551 0)
(0.48919 0.000122254 0)
(0.485755 9.09817e-06 0)
(0.483034 -8.10299e-05 0)
(0.480921 -0.000153178 0)
(0.479332 -0.000212732 0)
(0.478212 -0.000275514 0)
(0.477551 -0.000339415 0)
(0.477353 -0.000403997 0)
(0.477567 -0.00045284 0)
(0.478155 -0.000588562 0)
(0.480113 -0.000578703 0)
(0.480153 -0.00141551 0)
(1.00123 0.00759615 0)
(1.00608 0.00749012 0)
(1.00509 0.00703355 0)
(1.00239 0.00687505 0)
(0.999183 0.00680926 0)
(0.995392 0.00672724 0)
(0.990841 0.00663606 0)
(0.985596 0.00655367 0)
(0.979772 0.00648198 0)
(0.973435 0.00641121 0)
(0.966638 0.00632555 0)
(0.959418 0.00625549 0)
(0.951953 0.00622386 0)
(0.944298 0.00618769 0)
(0.936447 0.00611133 0)
(0.928389 0.00598904 0)
(0.920086 0.00582712 0)
(0.91165 0.00563849 0)
(0.903202 0.00543305 0)
(0.894781 0.00519781 0)
(0.886383 0.00490094 0)
(0.877974 0.00454338 0)
(0.869667 0.00415604 0)
(0.861525 0.00375724 0)
(0.853612 0.00335886 0)
(0.845934 0.00296594 0)
(0.838534 0.00258615 0)
(0.831465 0.00223599 0)
(0.824737 0.00192608 0)
(0.818355 0.00165142 0)
(0.812321 0.00140873 0)
(0.806635 0.00119311 0)
(0.801301 0.000997727 0)
(0.796323 0.000817139 0)
(0.791695 0.000642812 0)
(0.787429 0.000470321 0)
(0.783612 0.000291527 0)
(0.78038 2.8222e-05 0)
(0.777827 -0.000260956 0)
(0.77644 -0.00148915 0)
(1.00177 0.00527778 0)
(1.00652 0.00691332 0)
(1.00896 0.00684822 0)
(1.01011 0.00696733 0)
(1.01088 0.00718595 0)
(1.01155 0.00734683 0)
(1.01202 0.00745554 0)
(1.01228 0.00751272 0)
(1.01237 0.00754642 0)
(1.01228 0.00756304 0)
(1.01202 0.00754327 0)
(1.01156 0.00749612 0)
(1.0109 0.00743283 0)
(1.01004 0.00734078 0)
(1.00895 0.00721553 0)
(1.00763 0.00706064 0)
(1.00605 0.00689006 0)
(1.00424 0.00671376 0)
(1.00223 0.00652582 0)
(1.00003 0.00631242 0)
(0.997612 0.00606141 0)
(0.994891 0.00577113 0)
(0.991868 0.00544969 0)
(0.988563 0.00510865 0)
(0.985001 0.00475664 0)
(0.981191 0.00441133 0)
(0.977153 0.00406061 0)
(0.972872 0.00370788 0)
(0.968449 0.00337772 0)
(0.963937 0.00307879 0)
(0.959376 0.00280778 0)
(0.954805 0.00255938 0)
(0.950259 0.00232626 0)
(0.945773 0.00209877 0)
(0.941386 0.00186675 0)
(0.93714 0.00161869 0)
(0.933097 0.00133622 0)
(0.929352 0.000943982 0)
(0.925961 0.000413208 0)
(0.923146 -0.000913781 0)
(1.0014 0.00444401 0)
(1.00545 0.00602363 0)
(1.00826 0.00624834 0)
(1.00987 0.00654807 0)
(1.01129 0.00682991 0)
(1.01275 0.00697756 0)
(1.01412 0.00704294 0)
(1.01539 0.00707864 0)
(1.01657 0.00709534 0)
(1.0178 0.00708705 0)
(1.01901 0.00707823 0)
(1.01998 0.00707394 0)
(1.02091 0.00705304 0)
(1.02179 0.00701351 0)
(1.0226 0.0069535 0)
(1.02332 0.00687349 0)
(1.02396 0.00678242 0)
(1.0245 0.00667166 0)
(1.02494 0.00653082 0)
(1.02528 0.00636536 0)
(1.02551 0.00616967 0)
(1.0256 0.00594003 0)
(1.02554 0.00568053 0)
(1.02531 0.00540075 0)
(1.0249 0.00510874 0)
(1.02432 0.00481135 0)
(1.02356 0.00452326 0)
(1.02261 0.00425612 0)
(1.02147 0.00400902 0)
(1.02016 0.00377903 0)
(1.01869 0.00356422 0)
(1.01708 0.00335415 0)
(1.01535 0.00314382 0)
(1.0135 0.00292984 0)
(1.01158 0.00270491 0)
(1.0096 0.00245724 0)
(1.0076 0.00215292 0)
(1.00564 0.00172226 0)
(1.00375 0.00109913 0)
(1.00189 -0.000122263 0)
(1.00108 0.00328472 0)
(1.00439 0.00550804 0)
(1.00713 0.00580979 0)
(1.00893 0.00612124 0)
(1.01056 0.00641778 0)
(1.01225 0.00658645 0)
(1.0139 0.00667643 0)
(1.01547 0.00673375 0)
(1.01699 0.00676933 0)
(1.01849 0.00678259 0)
(1.01997 0.00679219 0)
(1.02142 0.00679886 0)
(1.02284 0.00678619 0)
(1.02423 0.00675517 0)
(1.02558 0.00670424 0)
(1.02688 0.00663199 0)
(1.02814 0.00653578 0)
(1.02941 0.00642603 0)
(1.03053 0.00630627 0)
(1.0316 0.0061613 0)
(1.03262 0.00598514 0)
(1.03356 0.00577707 0)
(1.0344 0.00554238 0)
(1.03515 0.00529051 0)
(1.03579 0.00502951 0)
(1.03633 0.00476846 0)
(1.03676 0.00451555 0)
(1.0371 0.00427445 0)
(1.03734 0.00404637 0)
(1.0375 0.00383378 0)
(1.03757 0.00363585 0)
(1.03758 0.00344989 0)
(1.03751 0.00326916 0)
(1.03737 0.00308208 0)
(1.03718 0.00287645 0)
(1.03695 0.00263659 0)
(1.0367 0.00233634 0)
(1.03644 0.00190881 0)
(1.03618 0.0012814 0)
(1.03577 0.00019697 0)
(1.00079 0.00267889 0)
(1.00344 0.00479623 0)
(1.00602 0.00528706 0)
(1.00789 0.00564702 0)
(1.0096 0.00596833 0)
(1.0114 0.00615755 0)
(1.01316 0.00626196 0)
(1.01486 0.00632904 0)
(1.01653 0.00637064 0)
(1.01818 0.00638878 0)
(1.01981 0.00640292 0)
(1.02143 0.00641371 0)
(1.02304 0.00640627 0)
(1.02463 0.0063807 0)
(1.02619 0.00633622 0)
(1.02772 0.00627231 0)
(1.02921 0.00618768 0)
(1.03067 0.00609026 0)
(1.03208 0.00598241 0)
(1.03346 0.00584944 0)
(1.03477 0.00568732 0)
(1.03603 0.00549695 0)
(1.0372 0.00528308 0)
(1.0383 0.00505353 0)
(1.03931 0.00481538 0)
(1.04024 0.00457596 0)
(1.04108 0.00434176 0)
(1.04185 0.00411774 0)
(1.04256 0.00390722 0)
(1.0432 0.00371204 0)
(1.0438 0.00353046 0)
(1.04435 0.00335723 0)
(1.04487 0.00318524 0)
(1.04537 0.00300516 0)
(1.04584 0.00280552 0)
(1.04631 0.00256999 0)
(1.04678 0.00226947 0)
(1.04726 0.00184236 0)
(1.04773 0.00122437 0)
(1.04804 0.000243184 0)
(1.00059 0.00215584 0)
(1.00272 0.00425579 0)
(1.00509 0.0047778 0)
(1.00694 0.00516619 0)
(1.00867 0.00550504 0)
(1.01048 0.00570751 0)
(1.0123 0.00581946 0)
(1.01407 0.00589198 0)
(1.01581 0.00593909 0)
(1.01755 0.00596331 0)
(1.01927 0.00598036 0)
(1.02097 0.00599292 0)
(1.02268 0.00598945 0)
(1.02437 0.00596894 0)
(1.02603 0.00593097 0)
(1.02768 0.00587503 0)
(1.02929 0.00579943 0)
(1.03087 0.0057122 0)
(1.03241 0.00561415 0)
(1.03391 0.00549274 0)
(1.03537 0.00534463 0)
(1.03678 0.00517092 0)
(1.03811 0.0049756 0)
(1.03937 0.00476542 0)
(1.04055 0.00454685 0)
(1.04166 0.00432635 0)
(1.04269 0.00411003 0)
(1.04365 0.00390271 0)
(1.04456 0.00370711 0)
(1.04541 0.00352412 0)
(1.04622 0.00335186 0)
(1.047 0.00318547 0)
(1.04775 0.00301848 0)
(1.04849 0.00284181 0)
(1.04923 0.00264335 0)
(1.04996 0.00240567 0)
(1.0507 0.00210055 0)
(1.05145 0.00167404 0)
(1.05217 0.00107067 0)
(1.05274 0.000174814 0)
(1.00045 0.00175459 0)
(1.00218 0.00369709 0)
(1.00435 0.00433938 0)
(1.00615 0.00472594 0)
(1.00786 0.00505382 0)
(1.00965 0.00525639 0)
(1.01147 0.00537028 0)
(1.01326 0.00544502 0)
(1.01504 0.00549529 0)
(1.01682 0.00552392 0)
(1.01858 0.00554331 0)
(1.02035 0.00555699 0)
(1.0221 0.00555634 0)
(1.02385 0.00553974 0)
(1.02558 0.00550695 0)
(1.02729 0.0054576 0)
(1.02897 0.00539046 0)
(1.03062 0.00531107 0)
(1.03223 0.00522061 0)
(1.03381 0.00510948 0)
(1.03535 0.0049743 0)
(1.03683 0.00481593 0)
(1.03825 0.0046378 0)
(1.03961 0.00444575 0)
(1.04088 0.00424566 0)
(1.04209 0.00404334 0)
(1.04323 0.00384421 0)
(1.0443 0.00365246 0)
(1.04532 0.00347033 0)
(1.04628 0.00329838 0)
(1.04721 0.00313479 0)
(1.04811 0.00297503 0)
(1.04898 0.00281266 0)
(1.04984 0.00263858 0)
(1.0507 0.00244057 0)
(1.05155 0.00220125 0)
(1.05242 0.00189407 0)
(1.05327 0.00147191 0)
(1.05409 0.000887701 0)
(1.05476 6.48927e-05 0)
(1.00035 0.00144022 0)
(1.00177 0.00323951 0)
(1.00375 0.00390567 0)
(1.0055 0.00428655 0)
(1.00717 0.00460578 0)
(1.00894 0.00480805 0)
(1.01074 0.00492204 0)
(1.01253 0.00499636 0)
(1.01432 0.00504713 0)
(1.01611 0.00507765 0)
(1.01789 0.00509797 0)
(1.01968 0.0051119 0)
(1.02147 0.00511306 0)
(1.02324 0.00509949 0)
(1.02501 0.00507104 0)
(1.02676 0.00502745 0)
(1.02848 0.00496789 0)
(1.03017 0.00489617 0)
(1.03183 0.00481333 0)
(1.03345 0.00471205 0)
(1.03504 0.00458903 0)
(1.03657 0.00444504 0)
(1.03805 0.00428311 0)
(1.03945 0.00410827 0)
(1.04079 0.00392578 0)
(1.04206 0.00374078 0)
(1.04327 0.003558 0)
(1.04441 0.00338109 0)
(1.04549 0.00321192 0)
(1.04653 0.0030508 0)
(1.04753 0.00289581 0)
(1.0485 0.00274255 0)
(1.04945 0.00258461 0)
(1.05038 0.00241307 0)
(1.0513 0.00221594 0)
(1.05223 0.00197622 0)
(1.05315 0.00166911 0)
(1.05406 0.00125377 0)
(1.05491 0.000691019 0)
(1.05563 -6.87134e-05 0)
(1.00028 0.00119212 0)
(1.00147 0.00282019 0)
(1.00327 0.00349274 0)
(1.00496 0.00386552 0)
(1.00661 0.0041698 0)
(1.00834 0.00436649 0)
(1.01011 0.00447764 0)
(1.01189 0.00454944 0)
(1.01368 0.00459887 0)
(1.01547 0.00462949 0)
(1.01726 0.00464959 0)
(1.01906 0.00466299 0)
(1.02085 0.00466506 0)
(1.02264 0.00465376 0)
(1.02442 0.00462893 0)
(1.02619 0.00459037 0)
(1.02793 0.00453753 0)
(1.02965 0.00447303 0)
(1.03133 0.00439767 0)
(1.03299 0.00430582 0)
(1.0346 0.00419444 0)
(1.03617 0.00406419 0)
(1.03767 0.00391774 0)
(1.03911 0.00375939 0)
(1.04049 0.00359378 0)
(1.0418 0.00342543 0)
(1.04305 0.00325844 0)
(1.04423 0.00309593 0)
(1.04537 0.00293946 0)
(1.04645 0.00278901 0)
(1.0475 0.0026426 0)
(1.04852 0.00249588 0)
(1.04951 0.0023426 0)
(1.05049 0.00217404 0)
(1.05145 0.00197854 0)
(1.05242 0.00173974 0)
(1.05337 0.00143469 0)
(1.0543 0.00102834 0)
(1.05518 0.000488449 0)
(1.05592 -0.000215163 0)
(1.00023 0.000991254 0)
(1.00124 0.00244199 0)
(1.00289 0.00310104 0)
(1.00453 0.00345917 0)
(1.00614 0.00374345 0)
(1.00784 0.00393093 0)
(1.00959 0.00403751 0)
(1.01136 0.00410558 0)
(1.01313 0.00415252 0)
(1.01492 0.0041821 0)
(1.01671 0.0042012 0)
(1.0185 0.00421356 0)
(1.0203 0.00421587 0)
(1.02209 0.0042062 0)
(1.02388 0.00418436 0)
(1.02565 0.00415021 0)
(1.0274 0.00410335 0)
(1.02913 0.00404558 0)
(1.03083 0.00397746 0)
(1.03249 0.00389465 0)
(1.03412 0.00379446 0)
(1.0357 0.00367741 0)
(1.03723 0.0035458 0)
(1.03869 0.0034033 0)
(1.0401 0.00325395 0)
(1.04143 0.00310168 0)
(1.04271 0.00295001 0)
(1.04392 0.00280155 0)
(1.04509 0.00265752 0)
(1.0462 0.00251763 0)
(1.04728 0.00237981 0)
(1.04833 0.00223981 0)
(1.04935 0.00209151 0)
(1.05036 0.00192648 0)
(1.05136 0.00173342 0)
(1.05234 0.0014968 0)
(1.05331 0.00119564 0)
(1.05425 0.000800039 0)
(1.05513 0.000283818 0)
(1.05588 -0.000370114 0)
(1.00019 0.000825291 0)
(1.00106 0.00210061 0)
(1.00258 0.00272712 0)
(1.00417 0.0030646 0)
(1.00575 0.00332576 0)
(1.00743 0.00350115 0)
(1.00916 0.00360159 0)
(1.01091 0.00366498 0)
(1.01268 0.00370862 0)
(1.01445 0.00373642 0)
(1.01623 0.00375406 0)
(1.01802 0.0037651 0)
(1.01982 0.00376727 0)
(1.02161 0.00375883 0)
(1.02339 0.00373954 0)
(1.02516 0.00370933 0)
(1.02691 0.00366788 0)
(1.02864 0.00361643 0)
(1.03035 0.00355535 0)
(1.03202 0.00348127 0)
(1.03366 0.00339186 0)
(1.03525 0.0032875 0)
(1.03678 0.00317016 0)
(1.03826 0.00304294 0)
(1.03967 0.00290931 0)
(1.04103 0.00277262 0)
(1.04232 0.00263583 0)
(1.04355 0.0025011 0)
(1.04474 0.00236928 0)
(1.04587 0.00223987 0)
(1.04697 0.00211068 0)
(1.04804 0.00197759 0)
(1.04909 0.00183462 0)
(1.05011 0.00167363 0)
(1.05112 0.00148381 0)
(1.05212 0.00125058 0)
(1.05309 0.00095487 0)
(1.05404 0.000571365 0)
(1.05491 7.91131e-05 0)
(1.05566 -0.000530099 0)
(1.00016 0.000685302 0)
(1.00092 0.00179012 0)
(1.00233 0.00236881 0)
(1.00387 0.00268039 0)
(1.00544 0.00291603 0)
(1.00708 0.00307667 0)
(1.0088 0.0031694 0)
(1.01054 0.00322732 0)
(1.0123 0.00326708 0)
(1.01406 0.00329256 0)
(1.01584 0.00330849 0)
(1.01762 0.00331813 0)
(1.01941 0.00331999 0)
(1.02119 0.00331254 0)
(1.02297 0.00329555 0)
(1.02474 0.00326898 0)
(1.02649 0.00323258 0)
(1.02822 0.00318718 0)
(1.02992 0.00313298 0)
(1.0316 0.0030674 0)
(1.03323 0.00298844 0)
(1.03482 0.00289636 0)
(1.03636 0.00279281 0)
(1.03784 0.00268038 0)
(1.03927 0.00256198 0)
(1.04063 0.00244043 0)
(1.04193 0.00231816 0)
(1.04318 0.00219687 0)
(1.04437 0.00207708 0)
(1.04552 0.00195808 0)
(1.04664 0.00183759 0)
(1.04772 0.00171159 0)
(1.04877 0.00157427 0)
(1.04981 0.00141784 0)
(1.05082 0.00123202 0)
(1.05182 0.00100322 0)
(1.0528 0.000714299 0)
(1.05374 0.000343891 0)
(1.0546 -0.000124465 0)
(1.05535 -0.000693036 0)
(1.00014 0.000564651 0)
(1.00082 0.00150525 0)
(1.00214 0.00202444 0)
(1.00364 0.00230521 0)
(1.00517 0.0025133 0)
(1.0068 0.00265687 0)
(1.0085 0.00274044 0)
(1.01023 0.00279217 0)
(1.01198 0.00282757 0)
(1.01374 0.00285035 0)
(1.01551 0.00286441 0)
(1.01729 0.00287265 0)
(1.01907 0.00287413 0)
(1.02085 0.00286759 0)
(1.02262 0.00285279 0)
(1.02439 0.00282969 0)
(1.02613 0.00279811 0)
(1.02786 0.00275859 0)
(1.02956 0.00271122 0)
(1.03123 0.002654 0)
(1.03286 0.00258525 0)
(1.03445 0.00250514 0)
(1.03599 0.002415 0)
(1.03747 0.00231697 0)
(1.0389 0.00221342 0)
(1.04026 0.00210665 0)
(1.04157 0.00199859 0)
(1.04282 0.0018905 0)
(1.04403 0.0017826 0)
(1.04518 0.00167396 0)
(1.0463 0.00156225 0)
(1.04739 0.00144352 0)
(1.04845 0.0013122 0)
(1.04949 0.00116082 0)
(1.05051 0.000979686 0)
(1.0515 0.000756272 0)
(1.05247 0.000475233 0)
(1.0534 0.000118659 0)
(1.05426 -0.000326145 0)
(1.055 -0.000857406 0)
(1.00013 0.000458395 0)
(1.00074 0.00124134 0)
(1.00198 0.00169224 0)
(1.00344 0.00193772 0)
(1.00496 0.00211657 0)
(1.00657 0.00224112 0)
(1.00826 0.00231422 0)
(1.00998 0.00235914 0)
(1.01172 0.00238977 0)
(1.01348 0.00240954 0)
(1.01524 0.0024216 0)
(1.01702 0.00242846 0)
(1.01879 0.00242958 0)
(1.02057 0.00242392 0)
(1.02234 0.00241126 0)
(1.0241 0.00239156 0)
(1.02584 0.00236469 0)
(1.02756 0.00233097 0)
(1.02926 0.00229042 0)
(1.03092 0.0022415 0)
(1.03255 0.00218282 0)
(1.03414 0.00211444 0)
(1.03567 0.00203745 0)
(1.03716 0.00195351 0)
(1.03858 0.00186451 0)
(1.03995 0.00177225 0)
(1.04126 0.00167817 0)
(1.04251 0.00158312 0)
(1.04372 0.00148702 0)
(1.04488 0.00138874 0)
(1.046 0.00128589 0)
(1.04709 0.00117465 0)
(1.04815 0.00104964 0)
(1.04919 0.000903785 0)
(1.0502 0.000728001 0)
(1.05119 0.000510797 0)
(1.05216 0.00023855 0)
(1.05307 -0.000103672 0)
(1.05392 -0.000525423 0)
(1.05466 -0.00102224 0)
(1.00012 0.000362809 0)
(1.00068 0.000994287 0)
(1.00186 0.00137039 0)
(1.00329 0.00157668 0)
(1.00479 0.00172489 0)
(1.00639 0.00182884 0)
(1.00807 0.0018903 0)
(1.00978 0.00192784 0)
(1.01152 0.00195335 0)
(1.01327 0.00196985 0)
(1.01503 0.00197981 0)
(1.0168 0.00198533 0)
(1.01857 0.00198611 0)
(1.02034 0.00198134 0)
(1.02211 0.0019708 0)
(1.02386 0.00195449 0)
(1.0256 0.00193226 0)
(1.02732 0.00190432 0)
(1.02901 0.00187062 0)
(1.03067 0.00182998 0)
(1.0323 0.00178128 0)
(1.03388 0.00172451 0)
(1.03542 0.00166048 0)
(1.0369 0.00159042 0)
(1.03832 0.00151576 0)
(1.03969 0.00143781 0)
(1.04099 0.00135755 0)
(1.04225 0.00127543 0)
(1.04346 0.00119108 0)
(1.04462 0.0011032 0)
(1.04574 0.00100936 0)
(1.04683 0.000905821 0)
(1.04789 0.00078746 0)
(1.04892 0.000647589 0)
(1.04993 0.000477757 0)
(1.05091 0.000267497 0)
(1.05186 4.79267e-06 0)
(1.05277 -0.000322727 0)
(1.0536 -0.00072202 0)
(1.05433 -0.00118687 0)
(1.00011 0.000275028 0)
(1.00064 0.000760389 0)
(1.00177 0.00105703 0)
(1.00317 0.00122087 0)
(1.00466 0.00133732 0)
(1.00625 0.0014194 0)
(1.00792 0.00146824 0)
(1.00963 0.00149793 0)
(1.01136 0.00151804 0)
(1.0131 0.00153105 0)
(1.01486 0.00153883 0)
(1.01663 0.00154302 0)
(1.0184 0.00154349 0)
(1.02017 0.00153962 0)
(1.02193 0.00153123 0)
(1.02368 0.00151828 0)
(1.02542 0.00150069 0)
(1.02713 0.00147853 0)
(1.02882 0.00145172 0)
(1.03048 0.00141938 0)
(1.0321 0.00138062 0)
(1.03368 0.00133537 0)
(1.03521 0.00128416 0)
(1.03669 0.00122784 0)
(1.03811 0.00116738 0)
(1.03948 0.00110362 0)
(1.04079 0.00103709 0)
(1.04204 0.000967856 0)
(1.04324 0.000895269 0)
(1.0444 0.000817861 0)
(1.04553 0.000733171 0)
(1.04661 0.000637576 0)
(1.04767 0.000526199 0)
(1.0487 0.00039276 0)
(1.0497 0.000229445 0)
(1.05067 2.67818e-05 0)
(1.05161 -0.000225763 0)
(1.0525 -0.000538358 0)
(1.05332 -0.000915833 0)
(1.05404 -0.00135087 0)
(1.0001 0.000192792 0)
(1.00061 0.00053634 0)
(1.00171 0.000750281 0)
(1.00309 0.000869124 0)
(1.00457 0.000952923 0)
(1.00615 0.0010122 0)
(1.00781 0.00104762 0)
(1.00951 0.00106908 0)
(1.01124 0.00108356 0)
(1.01298 0.00109291 0)
(1.01474 0.00109844 0)
(1.01651 0.00110133 0)
(1.01827 0.00110151 0)
(1.02004 0.00109856 0)
(1.0218 0.00109231 0)
(1.02355 0.00108275 0)
(1.02528 0.00106978 0)
(1.027 0.00105341 0)
(1.02868 0.00103354 0)
(1.03034 0.00100953 0)
(1.03196 0.000980694 0)
(1.03354 0.000946908 0)
(1.03506 0.000908448 0)
(1.03654 0.000865791 0)
(1.03796 0.000819449 0)
(1.03932 0.000769804 0)
(1.04063 0.000716963 0)
(1.04188 0.000660607 0)
(1.04309 0.000599828 0)
(1.04424 0.000532999 0)
(1.04536 0.000457635 0)
(1.04644 0.000370235 0)
(1.0475 0.000266177 0)
(1.04852 0.0001396 0)
(1.04951 -1.66738e-05 0)
(1.05048 -0.000211163 0)
(1.0514 -0.00045304 0)
(1.05228 -0.000750587 0)
(1.05309 -0.0011069 0)
(1.0538 -0.00151402 0)
(1.0001 0.000114257 0)
(1.00059 0.000319113 0)
(1.00167 0.000448247 0)
(1.00303 0.000520266 0)
(1.00451 0.000570781 0)
(1.00608 0.00060658 0)
(1.00773 0.000628026 0)
(1.00944 0.000640973 0)
(1.01116 0.000649664 0)
(1.01291 0.000655241 0)
(1.01466 0.000658474 0)
(1.01643 0.000660058 0)
(1.01819 0.000659973 0)
(1.01996 0.000657945 0)
(1.02172 0.000653867 0)
(1.02346 0.000647696 0)
(1.02519 0.000639346 0)
(1.02691 0.000628779 0)
(1.02859 0.000615885 0)
(1.03025 0.000600225 0)
(1.03186 0.000581319 0)
(1.03344 0.000558979 0)
(1.03497 0.000533233 0)
(1.03644 0.000504191 0)
(1.03786 0.000471928 0)
(1.03922 0.000436377 0)
(1.04052 0.000397222 0)
(1.04178 0.000353782 0)
(1.04298 0.000304886 0)
(1.04413 0.000248762 0)
(1.04525 0.000182913 0)
(1.04633 0.000103963 0)
(1.04737 7.55234e-06 0)
(1.04839 -0.000111752 0)
(1.04938 -0.000260502 0)
(1.05033 -0.000446308 0)
(1.05125 -0.000677102 0)
(1.05211 -0.00095955 0)
(1.0529 -0.00129534 0)
(1.05361 -0.00167622 0)
(1.0001 3.78449e-05 0)
(1.00058 0.0001059 0)
(1.00165 0.000149048 0)
(1.003 0.000173149 0)
(1.00448 0.000189996 0)
(1.00604 0.000201928 0)
(1.0077 0.000209058 0)
(1.0094 0.000213316 0)
(1.01113 0.000216122 0)
(1.01287 0.000217854 0)
(1.01462 0.000218756 0)
(1.01639 0.000219045 0)
(1.01815 0.000218701 0)
(1.01992 0.00021761 0)
(1.02167 0.000215705 0)
(1.02342 0.000212931 0)
(1.02515 0.000209209 0)
(1.02686 0.00020446 0)
(1.02855 0.000198567 0)
(1.0302 0.000191284 0)
(1.03182 0.000182313 0)
(1.03339 0.000171416 0)
(1.03492 0.000158376 0)
(1.03639 0.000142939 0)
(1.03781 0.000124753 0)
(1.03917 0.000103308 0)
(1.04047 7.78725e-05 0)
(1.04172 4.74099e-05 0)
(1.04292 1.04947e-05 0)
(1.04407 -3.4781e-05 0)
(1.04518 -9.0921e-05 0)
(1.04626 -0.000161168 0)
(1.0473 -0.000249612 0)
(1.04831 -0.000361258 0)
(1.04929 -0.000502043 0)
(1.05023 -0.000678718 0)
(1.05114 -0.000898092 0)
(1.05199 -0.00116545 0)
(1.05277 -0.00148135 0)
(1.05347 -0.00183746 0)
(1.0001 -3.78738e-05 0)
(1.00058 -0.000105988 0)
(1.00165 -0.000149202 0)
(1.003 -0.000173383 0)
(1.00448 -0.000190332 0)
(1.00604 -0.000202395 0)
(1.0077 -0.000209697 0)
(1.0094 -0.000214184 0)
(1.01113 -0.000217295 0)
(1.01287 -0.000219431 0)
(1.01462 -0.00022087 0)
(1.01639 -0.000221873 0)
(1.01815 -0.00022247 0)
(1.01992 -0.00022262 0)
(1.02167 -0.000222348 0)
(1.02342 -0.000221719 0)
(1.02515 -0.000220807 0)
(1.02686 -0.000219729 0)
(1.02854 -0.000218605 0)
(1.0302 -0.000217495 0)
(1.03181 -0.000216517 0)
(1.03339 -0.000215958 0)
(1.03491 -0.000216277 0)
(1.03639 -0.000218088 0)
(1.0378 -0.000222167 0)
(1.03916 -0.000229462 0)
(1.04046 -0.000241115 0)
(1.04171 -0.000258515 0)
(1.04291 -0.000283334 0)
(1.04406 -0.000317609 0)
(1.04517 -0.000363843 0)
(1.04624 -0.000425139 0)
(1.04728 -0.000505312 0)
(1.04828 -0.000608942 0)
(1.04925 -0.00074136 0)
(1.05019 -0.000908514 0)
(1.05108 -0.0011162 0)
(1.05192 -0.00136852 0)
(1.05269 -0.00166514 0)
(1.05338 -0.00199778 0)
(1.0001 -0.000114286 0)
(1.00059 -0.000319201 0)
(1.00167 -0.0004484 0)
(1.00303 -0.000520499 0)
(1.00451 -0.000571115 0)
(1.00608 -0.000607044 0)
(1.00773 -0.000628662 0)
(1.00944 -0.000641836 0)
(1.01116 -0.00065083 0)
(1.01291 -0.00065681 0)
(1.01466 -0.000660577 0)
(1.01643 -0.000662871 0)
(1.01819 -0.000663723 0)
(1.01996 -0.00066293 0)
(1.02171 -0.000660479 0)
(1.02346 -0.000656443 0)
(1.02519 -0.00065089 0)
(1.0269 -0.00064398 0)
(1.02859 -0.000635835 0)
(1.03024 -0.000626322 0)
(1.03186 -0.000615376 0)
(1.03343 -0.000603332 0)
(1.03496 -0.000590891 0)
(1.03643 -0.000579025 0)
(1.03785 -0.000568937 0)
(1.03921 -0.000562007 0)
(1.04051 -0.00055979 0)
(1.04176 -0.000564017 0)
(1.04295 -0.000576609 0)
(1.0441 -0.000599723 0)
(1.0452 -0.000635852 0)
(1.04627 -0.000687956 0)
(1.0473 -0.000759571 0)
(1.0483 -0.000854851 0)
(1.04926 -0.00097854 0)
(1.05019 -0.00113583 0)
(1.05107 -0.00133161 0)
(1.0519 -0.00156898 0)
(1.05266 -0.00184688 0)
(1.05335 -0.00215721 0)
(1.0001 -0.000192821 0)
(1.00061 -0.000536426 0)
(1.00171 -0.000750432 0)
(1.00309 -0.000869354 0)
(1.00457 -0.000953253 0)
(1.00615 -0.00101266 0)
(1.00781 -0.00104825 0)
(1.00951 -0.00106993 0)
(1.01124 -0.00108471 0)
(1.01298 -0.00109446 0)
(1.01474 -0.00110053 0)
(1.01651 -0.00110411 0)
(1.01827 -0.00110522 0)
(1.02004 -0.00110349 0)
(1.0218 -0.00109886 0)
(1.02355 -0.00109142 0)
(1.02528 -0.00108122 0)
(1.02699 -0.00106847 0)
(1.02868 -0.00105331 0)
(1.03033 -0.0010354 0)
(1.03195 -0.00101446 0)
(1.03353 -0.000990882 0)
(1.03506 -0.000965618 0)
(1.03653 -0.000939997 0)
(1.03794 -0.000915648 0)
(1.0393 -0.000894389 0)
(1.0406 -0.000878183 0)
(1.04185 -0.000869108 0)
(1.04304 -0.000869325 0)
(1.04419 -0.000881108 0)
(1.04529 -0.000906931 0)
(1.04635 -0.000949606 0)
(1.04738 -0.00101239 0)
(1.04837 -0.00109901 0)
(1.04932 -0.00121364 0)
(1.05024 -0.00136077 0)
(1.05111 -0.00154447 0)
(1.05193 -0.00176699 0)
(1.05269 -0.0020267 0)
(1.05336 -0.00231576 0)
(1.00011 -0.000275056 0)
(1.00064 -0.000760474 0)
(1.00177 -0.00105718 0)
(1.00317 -0.0012211 0)
(1.00466 -0.00133764 0)
(1.00625 -0.00141986 0)
(1.00792 -0.00146885 0)
(1.00963 -0.00149877 0)
(1.01136 -0.00151917 0)
(1.0131 -0.00153257 0)
(1.01486 -0.00154088 0)
(1.01663 -0.00154576 0)
(1.0184 -0.00154715 0)
(1.02017 -0.00154448 0)
(1.02193 -0.00153768 0)
(1.02368 -0.00152682 0)
(1.02542 -0.00151196 0)
(1.02713 -0.00149338 0)
(1.02882 -0.00147123 0)
(1.03047 -0.00144491 0)
(1.0321 -0.00141395 0)
(1.03367 -0.00137878 0)
(1.0352 -0.0013406 0)
(1.03667 -0.00130111 0)
(1.03809 -0.00126237 0)
(1.03945 -0.00122664 0)
(1.04075 -0.0011963 0)
(1.04199 -0.00117376 0)
(1.04318 -0.00116144 0)
(1.04433 -0.0011617 0)
(1.04542 -0.00117702 0)
(1.04648 -0.00121003 0)
(1.0475 -0.00126372 0)
(1.04849 -0.00134139 0)
(1.04943 -0.00144665 0)
(1.05034 -0.00158335 0)
(1.0512 -0.00175483 0)
(1.05201 -0.00196261 0)
(1.05276 -0.00220463 0)
(1.05343 -0.00247332 0)
(1.00012 -0.000362836 0)
(1.00068 -0.000994369 0)
(1.00186 -0.00137054 0)
(1.00329 -0.0015769 0)
(1.00479 -0.00172521 0)
(1.00639 -0.00182928 0)
(1.00807 -0.0018909 0)
(1.00978 -0.00192867 0)
(1.01152 -0.00195446 0)
(1.01327 -0.00197134 0)
(1.01503 -0.00198182 0)
(1.0168 -0.00198801 0)
(1.01857 -0.00198969 0)
(1.02034 -0.0019861 0)
(1.02211 -0.00197713 0)
(1.02386 -0.00196286 0)
(1.0256 -0.00194333 0)
(1.02731 -0.00191891 0)
(1.02901 -0.00188978 0)
(1.03067 -0.00185506 0)
(1.03229 -0.00181403 0)
(1.03387 -0.00176717 0)
(1.0354 -0.00171595 0)
(1.03687 -0.00166244 0)
(1.03829 -0.00160914 0)
(1.03965 -0.00155876 0)
(1.04095 -0.00151408 0)
(1.04219 -0.0014779 0)
(1.04338 -0.00145283 0)
(1.04452 -0.00144138 0)
(1.04561 -0.00144596 0)
(1.04666 -0.00146907 0)
(1.04768 -0.00151341 0)
(1.04865 -0.00158185 0)
(1.04959 -0.00167746 0)
(1.05049 -0.0018035 0)
(1.05134 -0.00196264 0)
(1.05214 -0.00215579 0)
(1.05287 -0.00238055 0)
(1.05354 -0.00262967 0)
(1.00013 -0.000458422 0)
(1.00074 -0.00124142 0)
(1.00198 -0.00169238 0)
(1.00344 -0.00193794 0)
(1.00496 -0.00211688 0)
(1.00657 -0.00224155 0)
(1.00826 -0.00231481 0)
(1.00998 -0.00235994 0)
(1.01172 -0.00239085 0)
(1.01348 -0.00241099 0)
(1.01524 -0.00242355 0)
(1.01702 -0.00243107 0)
(1.01879 -0.00243307 0)
(1.02057 -0.00242857 0)
(1.02234 -0.00241742 0)
(1.02409 -0.00239973 0)
(1.02584 -0.00237548 0)
(1.02755 -0.00234522 0)
(1.02925 -0.00230915 0)
(1.03091 -0.00226601 0)
(1.03254 -0.00221483 0)
(1.03412 -0.00215617 0)
(1.03565 -0.00209173 0)
(1.03713 -0.00202398 0)
(1.03855 -0.0019559 0)
(1.0399 -0.00189062 0)
(1.0412 -0.00183138 0)
(1.04244 -0.0017813 0)
(1.04362 -0.00174326 0)
(1.04476 -0.00171987 0)
(1.04584 -0.00171349 0)
(1.04689 -0.00172645 0)
(1.04789 -0.00176117 0)
(1.04886 -0.00182012 0)
(1.04979 -0.0019058 0)
(1.05068 -0.00202094 0)
(1.05152 -0.00216764 0)
(1.0523 -0.00234626 0)
(1.05303 -0.00255416 0)
(1.05368 -0.00278442 0)
(1.00014 -0.000564677 0)
(1.00082 -0.00150533 0)
(1.00214 -0.00202457 0)
(1.00364 -0.00230541 0)
(1.00517 -0.0025136 0)
(1.0068 -0.00265728 0)
(1.0085 -0.00274101 0)
(1.01023 -0.00279294 0)
(1.01198 -0.00282861 0)
(1.01374 -0.00285176 0)
(1.01551 -0.0028663 0)
(1.01729 -0.00287518 0)
(1.01907 -0.00287751 0)
(1.02085 -0.00287209 0)
(1.02262 -0.00285877 0)
(1.02438 -0.00283761 0)
(1.02613 -0.00280859 0)
(1.02785 -0.00277244 0)
(1.02955 -0.00272943 0)
(1.03122 -0.00267785 0)
(1.03285 -0.00261641 0)
(1.03443 -0.00254575 0)
(1.03597 -0.00246785 0)
(1.03744 -0.00238559 0)
(1.03886 -0.00230242 0)
(1.04021 -0.00222195 0)
(1.04151 -0.00214784 0)
(1.04274 -0.00208358 0)
(1.04392 -0.0020323 0)
(1.04504 -0.0019967 0)
(1.04612 -0.00197909 0)
(1.04716 -0.00198164 0)
(1.04815 -0.00200649 0)
(1.0491 -0.00205567 0)
(1.05002 -0.00213117 0)
(1.05089 -0.00223519 0)
(1.05172 -0.00236933 0)
(1.05249 -0.00253351 0)
(1.0532 -0.0027249 0)
(1.05384 -0.00293691 0)
(1.00016 -0.000685326 0)
(1.00092 -0.0017902 0)
(1.00233 -0.00236894 0)
(1.00387 -0.00268059 0)
(1.00544 -0.00291631 0)
(1.00708 -0.00307707 0)
(1.0088 -0.00316995 0)
(1.01054 -0.00322805 0)
(1.01229 -0.00326807 0)
(1.01406 -0.0032939 0)
(1.01584 -0.0033103 0)
(1.01762 -0.00332056 0)
(1.01941 -0.00332324 0)
(1.02119 -0.00331687 0)
(1.02297 -0.00330132 0)
(1.02474 -0.00327661 0)
(1.02649 -0.00324269 0)
(1.02821 -0.00320056 0)
(1.02991 -0.00315059 0)
(1.03158 -0.00309047 0)
(1.03322 -0.0030186 0)
(1.0348 -0.00293569 0)
(1.03633 -0.002844 0)
(1.03781 -0.00274687 0)
(1.03922 -0.00264824 0)
(1.04057 -0.00255218 0)
(1.04185 -0.00246283 0)
(1.04308 -0.00238405 0)
(1.04425 -0.0023192 0)
(1.04536 -0.00227109 0)
(1.04643 -0.00224197 0)
(1.04745 -0.00223384 0)
(1.04843 -0.00224856 0)
(1.04937 -0.0022877 0)
(1.05026 -0.00235274 0)
(1.05112 -0.00244544 0)
(1.05192 -0.00256694 0)
(1.05268 -0.00271674 0)
(1.05337 -0.00289192 0)
(1.05399 -0.0030862 0)
(1.00019 -0.000825314 0)
(1.00106 -0.00210068 0)
(1.00258 -0.00272725 0)
(1.00417 -0.00306479 0)
(1.00575 -0.00332603 0)
(1.00743 -0.00350152 0)
(1.00916 -0.0036021 0)
(1.01091 -0.00366568 0)
(1.01268 -0.00370957 0)
(1.01445 -0.0037377 0)
(1.01623 -0.00375579 0)
(1.01802 -0.00376743 0)
(1.01981 -0.00377038 0)
(1.0216 -0.00376297 0)
(1.02339 -0.00374506 0)
(1.02516 -0.00371664 0)
(1.02691 -0.00367758 0)
(1.02864 -0.00362929 0)
(1.03034 -0.00357228 0)
(1.03201 -0.00350346 0)
(1.03364 -0.00342089 0)
(1.03522 -0.00332538 0)
(1.03675 -0.00321949 0)
(1.03822 -0.00310702 0)
(1.03962 -0.00299246 0)
(1.04096 -0.00288035 0)
(1.04223 -0.00277531 0)
(1.04344 -0.0026816 0)
(1.0446 -0.00260282 0)
(1.04569 -0.00254187 0)
(1.04674 -0.00250094 0)
(1.04774 -0.00248184 0)
(1.0487 -0.00248616 0)
(1.04962 -0.00251502 0)
(1.05049 -0.00256935 0)
(1.05132 -0.00265052 0)
(1.05211 -0.00275926 0)
(1.05283 -0.00289475 0)
(1.0535 -0.00305398 0)
(1.0541 -0.00323097 0)
(1.00023 -0.000991276 0)
(1.00124 -0.00244205 0)
(1.00289 -0.00310116 0)
(1.00453 -0.00345935 0)
(1.00614 -0.0037437 0)
(1.00784 -0.00393128 0)
(1.00959 -0.004038 0)
(1.01136 -0.00410624 0)
(1.01313 -0.00415341 0)
(1.01492 -0.00418331 0)
(1.01671 -0.00420284 0)
(1.0185 -0.00421576 0)
(1.02029 -0.00421882 0)
(1.02209 -0.00421014 0)
(1.02387 -0.00418961 0)
(1.02564 -0.00415717 0)
(1.02739 -0.00411258 0)
(1.02912 -0.00405786 0)
(1.03081 -0.00399364 0)
(1.03248 -0.00391587 0)
(1.0341 -0.00382224 0)
(1.03568 -0.00371368 0)
(1.0372 -0.00359305 0)
(1.03865 -0.0034647 0)
(1.04004 -0.00333365 0)
(1.04136 -0.00320495 0)
(1.04261 -0.00308372 0)
(1.0438 -0.00297462 0)
(1.04493 -0.0028815 0)
(1.046 -0.00280738 0)
(1.04702 -0.00275432 0)
(1.048 -0.00272397 0)
(1.04893 -0.00271763 0)
(1.04981 -0.00273596 0)
(1.05066 -0.00277933 0)
(1.05146 -0.00284877 0)
(1.05221 -0.00294466 0)
(1.0529 -0.00306587 0)
(1.05354 -0.00320934 0)
(1.05411 -0.00336942 0)
(1.00028 -0.00119214 0)
(1.00147 -0.00282025 0)
(1.00327 -0.00349284 0)
(1.00496 -0.00386568 0)
(1.00661 -0.00417004 0)
(1.00834 -0.00436682 0)
(1.01011 -0.0044781 0)
(1.01189 -0.00455006 0)
(1.01368 -0.0045997 0)
(1.01547 -0.00463063 0)
(1.01726 -0.00465112 0)
(1.01905 -0.00466506 0)
(1.02085 -0.00466783 0)
(1.02264 -0.00465746 0)
(1.02442 -0.00463387 0)
(1.02618 -0.00459693 0)
(1.02792 -0.00454625 0)
(1.02964 -0.00448468 0)
(1.03132 -0.00441302 0)
(1.03297 -0.00432597 0)
(1.03458 -0.00422084 0)
(1.03614 -0.0040987 0)
(1.03764 -0.00396272 0)
(1.03907 -0.00381785 0)
(1.04043 -0.0036697 0)
(1.04172 -0.00352381 0)
(1.04295 -0.00338582 0)
(1.0441 -0.00326085 0)
(1.0452 -0.00315297 0)
(1.04623 -0.0030653 0)
(1.04722 -0.00299979 0)
(1.04815 -0.00295791 0)
(1.04904 -0.00294068 0)
(1.04989 -0.00294826 0)
(1.05069 -0.0029804 0)
(1.05145 -0.00303793 0)
(1.05216 -0.00312084 0)
(1.05281 -0.00322774 0)
(1.0534 -0.0033556 0)