/*--------------------------------*- C++ -*----------------------------------*\
| =========                 |                                                 |
| \\      /  F ield         | OpenFOAM: The Open Source CFD Toolbox           |
|  \\    /   O peration     | Version:  2306                                  |
|   \\  /    A nd           | Website:  www.openfoam.com                      |
|    \\/     M anipulation  |                                                 |
\*---------------------------------------------------------------------------*/
FoamFile
{
    version     2.0;
    format      ascii;
    arch        "LSB;label=32;scalar=64";
    class       volVectorField;
    location    "1500";
    object      wallShearStress;
}
// * * * * * * * * * * * * * * * * * * * * * * * * * * * * * * * * * * * * * //

dimensions      [0 2 -2 0 0 0 0];

internalField   uniform (0 0 0);

boundaryField
{
    inlet
    {
        type            calculated;
        value           uniform (0 0 0);
    }
    outlet
    {
        type            calculated;
        value           uniform (0 0 0);
    }
    topWall
    {
        type            calculated;
        value           nonuniform List<vector> 
340
(
(-0.00782297 3.46003e-05 0)
(-0.00764805 6.4384e-05 0)
(-0.00743913 7.03617e-05 0)
(-0.00722491 7.27861e-05 0)
(-0.00701855 7.34342e-05 0)
(-0.00681854 7.27828e-05 0)
(-0.00662282 7.13445e-05 0)
(-0.00643156 6.9379e-05 0)
(-0.00624537 6.70528e-05 0)
(-0.00606446 6.44665e-05 0)
(-0.00588895 6.17118e-05 0)
(-0.0057192 5.84158e-05 0)
(-0.00555395 5.47157e-05 0)
(-0.00539324 5.12536e-05 0)
(-0.00523784 4.79714e-05 0)
(-0.00508886 4.44848e-05 0)
(-0.00494773 4.11045e-05 0)
(-0.0048135 3.82345e-05 0)
(-0.00468544 3.57288e-05 0)
(-0.00456411 3.31511e-05 0)
(-0.00445083 3.01372e-05 0)
(-0.0043475 2.67158e-05 0)
(-0.00425458 2.31705e-05 0)
(-0.00417205 1.97028e-05 0)
(-0.00409976 1.60952e-05 0)
(-0.00403775 1.24209e-05 0)
(-0.00398558 9.18676e-06 0)
(-0.00394223 6.52636e-06 0)
(-0.00390645 4.4213e-06 0)
(-0.00387696 2.80584e-06 0)
(-0.0038526 1.59966e-06 0)
(-0.00383236 7.07665e-07 0)
(-0.00381532 9.3907e-08 0)
(-0.0038007 -2.80684e-07 0)
(-0.00378781 -5.88149e-07 0)
(-0.00377629 -8.44763e-07 0)
(-0.00376566 -9.18777e-07 0)
(-0.00375549 -8.47841e-07 0)
(-0.00374539 -6.61378e-07 0)
(-0.00373507 -3.92637e-07 0)
(-0.00372434 -7.92291e-08 0)
(-0.0037131 2.42922e-07 0)
(-0.00370135 5.45759e-07 0)
(-0.00368917 8.0202e-07 0)
(-0.0036767 9.98597e-07 0)
(-0.00366409 1.14075e-06 0)
(-0.00365147 1.24125e-06 0)
(-0.00363895 1.3147e-06 0)
(-0.00362656 1.37578e-06 0)
(-0.00361431 1.44171e-06 0)
(-0.00360213 1.53054e-06 0)
(-0.00358989 1.65966e-06 0)
(-0.00357742 1.84423e-06 0)
(-0.00356451 2.09622e-06 0)
(-0.00355089 2.42414e-06 0)
(-0.00353631 2.83324e-06 0)
(-0.00352048 3.32296e-06 0)
(-0.00350312 3.88859e-06 0)
(-0.00348399 4.52685e-06 0)
(-0.00346284 5.23272e-06 0)
(-0.00343945 5.99636e-06 0)
(-0.00341362 6.808e-06 0)
(-0.00338519 7.65799e-06 0)
(-0.00335405 8.52922e-06 0)
(-0.00332012 9.4103e-06 0)
(-0.00328334 1.02904e-05 0)
(-0.00324372 1.11585e-05 0)
(-0.00320129 1.19983e-05 0)
(-0.00315612 1.28241e-05 0)
(-0.00310833 1.33926e-05 0)
(-0.00305857 1.35625e-05 0)
(-0.0030074 1.3623e-05 0)
(-0.002955 1.36715e-05 0)
(-0.00290153 1.37214e-05 0)
(-0.00284711 1.37648e-05 0)
(-0.00279188 1.37908e-05 0)
(-0.002736 1.37897e-05 0)
(-0.00267962 1.37519e-05 0)
(-0.00262294 1.3671e-05 0)
(-0.00256615 1.35479e-05 0)
(-0.00250941 1.34022e-05 0)
(-0.00245293 1.31438e-05 0)
(-0.00239647 1.28058e-05 0)
(-0.00234023 1.25216e-05 0)
(-0.00228447 1.22388e-05 0)
(-0.00222949 1.19137e-05 0)
(-0.00217558 1.15302e-05 0)
(-0.002123 1.10914e-05 0)
(-0.002072 1.06071e-05 0)
(-0.00202275 1.00884e-05 0)
(-0.00197539 9.54649e-06 0)
(-0.00193003 8.9919e-06 0)
(-0.00188674 8.43364e-06 0)
(-0.00184557 7.87875e-06 0)
(-0.00180653 7.33458e-06 0)
(-0.00176961 6.80904e-06 0)
(-0.00173476 6.3083e-06 0)
(-0.00170191 5.83661e-06 0)
(-0.00167099 5.40115e-06 0)
(-0.00164188 5.00224e-06 0)
(-0.0016145 4.72473e-06 0)
(-0.00158821 4.62584e-06 0)
(-0.00156264 4.6128e-06 0)
(-0.00153774 4.58832e-06 0)
(-0.00151356 4.50858e-06 0)
(-0.00149025 4.36088e-06 0)
(-0.00146796 4.15093e-06 0)
(-0.00144682 3.8932e-06 0)
(-0.00142696 3.60091e-06 0)
(-0.00140842 3.29911e-06 0)
(-0.00139115 3.01643e-06 0)
(-0.00137504 2.76375e-06 0)
(-0.00136002 2.52902e-06 0)
(-0.00134606 2.30743e-06 0)
(-0.0013331 2.10744e-06 0)
(-0.00132107 1.92767e-06 0)
(-0.00130991 1.76404e-06 0)
(-0.00129956 1.61249e-06 0)
(-0.00128999 1.46919e-06 0)
(-0.00128115 1.33149e-06 0)
(-0.00127302 1.19861e-06 0)
(-0.00126558 1.06458e-06 0)
(-0.00125884 9.27337e-07 0)
(-0.00125279 7.95706e-07 0)
(-0.00124739 6.75935e-07 0)
(-0.00124259 5.70165e-07 0)
(-0.00123834 4.78456e-07 0)
(-0.00123457 3.99273e-07 0)
(-0.00123125 3.30195e-07 0)
(-0.00122834 2.68438e-07 0)
(-0.0012258 2.12079e-07 0)
(-0.00122362 1.59172e-07 0)
(-0.00122177 1.05703e-07 0)
(-0.00122027 5.25867e-08 0)
(-0.00121909 4.17281e-09 0)
(-0.0012182 -3.87485e-08 0)
(-0.00121758 -7.68193e-08 0)
(-0.0012172 -1.0925e-07 0)
(-0.00121703 -1.34152e-07 0)
(-0.00121703 -1.53463e-07 0)
(-0.00121717 -1.63669e-07 0)
(-0.00121744 -1.6946e-07 0)
(-0.00121782 -1.7535e-07 0)
(-0.00121831 -1.82019e-07 0)
(-0.00121891 -1.90256e-07 0)
(-0.00121962 -1.97922e-07 0)
(-0.00122043 -2.04644e-07 0)
(-0.00122134 -2.12042e-07 0)
(-0.00122233 -2.16102e-07 0)
(-0.00122342 -2.19761e-07 0)
(-0.00122457 -2.22759e-07 0)
(-0.00122578 -2.27443e-07 0)
(-0.00122704 -2.33467e-07 0)
(-0.00122835 -2.40379e-07 0)
(-0.0012297 -2.46496e-07 0)
(-0.0012311 -2.50282e-07 0)
(-0.00123253 -2.53873e-07 0)
(-0.001234 -2.56933e-07 0)
(-0.00123549 -2.57337e-07 0)
(-0.00123701 -2.5653e-07 0)
(-0.00123855 -2.5591e-07 0)
(-0.0012401 -2.55302e-07 0)
(-0.00124166 -2.53262e-07 0)
(-0.00124323 -2.50782e-07 0)
(-0.0012448 -2.47356e-07 0)
(-0.00124637 -2.44013e-07 0)
(-0.00124793 -2.42261e-07 0)
(-0.0012495 -2.41402e-07 0)
(-0.00125107 -2.40847e-07 0)
(-0.00125265 -2.40158e-07 0)
(-0.00125422 -2.38816e-07 0)
(-0.00125579 -2.37187e-07 0)
(-0.00125736 -2.35209e-07 0)
(-0.00125892 -2.32833e-07 0)
(-0.00126047 -2.30297e-07 0)
(-0.00126202 -2.27592e-07 0)
(-0.00126355 -2.24644e-07 0)
(-0.00126507 -2.21754e-07 0)
(-0.00126658 -2.19191e-07 0)
(-0.00126808 -2.16672e-07 0)
(-0.00126957 -2.13636e-07 0)
(-0.00127104 -2.10061e-07 0)
(-0.00127249 -2.06506e-07 0)
(-0.00127393 -2.03395e-07 0)
(-0.00127535 -2.00727e-07 0)
(-0.00127676 -1.98531e-07 0)
(-0.00127816 -1.96937e-07 0)
(-0.00127954 -1.96008e-07 0)
(-0.00128092 -1.95708e-07 0)
(-0.00128229 -1.96359e-07 0)
(-0.00128366 -1.974e-07 0)
(-0.00128503 -1.98097e-07 0)
(-0.00128639 -1.98459e-07 0)
(-0.00128775 -1.98792e-07 0)
(-0.00128911 -1.99372e-07 0)
(-0.00129046 -2.00342e-07 0)
(-0.00129182 -2.0215e-07 0)
(-0.00129317 -2.04132e-07 0)
(-0.00129453 -2.05629e-07 0)
(-0.00129589 -2.06679e-07 0)
(-0.00129725 -2.07871e-07 0)
(-0.00129862 -2.0997e-07 0)
(-0.00129998 -2.12548e-07 0)
(-0.00130135 -2.16235e-07 0)
(-0.00130274 -2.22725e-07 0)
(-0.00130415 -2.31278e-07 0)
(-0.00130558 -2.39156e-07 0)
(-0.00130705 -2.45432e-07 0)
(-0.00130853 -2.50401e-07 0)
(-0.00131003 -2.54119e-07 0)
(-0.00131154 -2.56887e-07 0)
(-0.00131306 -2.5868e-07 0)
(-0.00131458 -2.59386e-07 0)
(-0.0013161 -2.58924e-07 0)
(-0.00131762 -2.57133e-07 0)
(-0.00131913 -2.53889e-07 0)
(-0.00132062 -2.49089e-07 0)
(-0.00132209 -2.4274e-07 0)
(-0.00132353 -2.34981e-07 0)
(-0.00132493 -2.25658e-07 0)
(-0.0013263 -2.14819e-07 0)
(-0.00132761 -2.02647e-07 0)
(-0.00132887 -1.89313e-07 0)
(-0.00133008 -1.74985e-07 0)
(-0.00133122 -1.59836e-07 0)
(-0.00133229 -1.44034e-07 0)
(-0.0013333 -1.27737e-07 0)
(-0.00133424 -1.11091e-07 0)
(-0.0013351 -9.42307e-08 0)
(-0.00133589 -7.72633e-08 0)
(-0.00133661 -6.05165e-08 0)
(-0.00133724 -4.40242e-08 0)
(-0.00133781 -2.76915e-08 0)
(-0.0013383 -1.1568e-08 0)
(-0.00133871 4.30944e-09 0)
(-0.00133904 1.99147e-08 0)
(-0.00133931 3.52203e-08 0)
(-0.0013395 5.03137e-08 0)
(-0.00133961 6.45618e-08 0)
(-0.00133966 8.02342e-08 0)
(-0.00133963 9.78983e-08 0)
(-0.00133951 1.17682e-07 0)
(-0.00133932 1.34265e-07 0)
(-0.00133906 1.49728e-07 0)
(-0.00133872 1.65363e-07 0)
(-0.00133831 1.80048e-07 0)
(-0.00133783 1.93378e-07 0)
(-0.00133729 2.0612e-07 0)
(-0.00133669 2.18068e-07 0)
(-0.00133603 2.29159e-07 0)
(-0.00133532 2.39212e-07 0)
(-0.00133456 2.47152e-07 0)
(-0.00133375 2.55918e-07 0)
(-0.00133289 2.65383e-07 0)
(-0.00133199 2.73771e-07 0)
(-0.00133105 2.81397e-07 0)
(-0.00133006 2.88707e-07 0)
(-0.00132904 2.95851e-07 0)
(-0.00132797 3.02837e-07 0)
(-0.00132686 3.09637e-07 0)
(-0.00132571 3.16225e-07 0)
(-0.00132453 3.22583e-07 0)
(-0.00132331 3.28699e-07 0)
(-0.00132206 3.34567e-07 0)
(-0.00132077 3.40185e-07 0)
(-0.00131945 3.45552e-07 0)
(-0.0013181 3.50669e-07 0)
(-0.00131672 3.55536e-07 0)
(-0.00131531 3.60161e-07 0)
(-0.00131387 3.64512e-07 0)
(-0.0013124 3.68602e-07 0)
(-0.00131091 3.72451e-07 0)
(-0.0013094 3.76075e-07 0)
(-0.00130786 3.79486e-07 0)
(-0.0013063 3.82695e-07 0)
(-0.00130471 3.85713e-07 0)
(-0.00130311 3.88553e-07 0)
(-0.00130148 3.91234e-07 0)
(-0.00129984 3.93784e-07 0)
(-0.00129818 3.96246e-07 0)
(-0.0012965 3.98747e-07 0)
(-0.00129481 4.01393e-07 0)
(-0.00129309 4.03853e-07 0)
(-0.00129136 4.06198e-07 0)
(-0.00128961 4.09118e-07 0)
(-0.00128784 4.129e-07 0)
(-0.00128603 4.17293e-07 0)
(-0.00128421 4.21774e-07 0)
(-0.00128235 4.25869e-07 0)
(-0.00128048 4.29278e-07 0)
(-0.00127858 4.31874e-07 0)
(-0.00127667 4.33658e-07 0)
(-0.00127475 4.34713e-07 0)
(-0.00127281 4.35166e-07 0)
(-0.00127087 4.35152e-07 0)
(-0.00126892 4.34799e-07 0)
(-0.00126696 4.34216e-07 0)
(-0.00126501 4.33488e-07 0)
(-0.00126305 4.32678e-07 0)
(-0.00126109 4.31828e-07 0)
(-0.00125912 4.30965e-07 0)
(-0.00125716 4.30101e-07 0)
(-0.00125519 4.29237e-07 0)
(-0.00125323 4.28372e-07 0)
(-0.00125126 4.27496e-07 0)
(-0.00124929 4.26595e-07 0)
(-0.00124733 4.25654e-07 0)
(-0.00124536 4.24656e-07 0)
(-0.0012434 4.23581e-07 0)
(-0.00124143 4.22409e-07 0)
(-0.00123947 4.21119e-07 0)
(-0.00123751 4.19693e-07 0)
(-0.00123556 4.18113e-07 0)
(-0.00123361 4.16366e-07 0)
(-0.00123166 4.14447e-07 0)
(-0.00122972 4.1236e-07 0)
(-0.00122779 4.10116e-07 0)
(-0.00122586 4.07741e-07 0)
(-0.00122394 4.05275e-07 0)
(-0.00122203 4.02771e-07 0)
(-0.00122013 4.00292e-07 0)
(-0.00121824 3.97914e-07 0)
(-0.00121635 3.95718e-07 0)
(-0.00121448 3.93789e-07 0)
(-0.00121261 3.92208e-07 0)
(-0.00121075 3.91049e-07 0)
(-0.00120889 3.90377e-07 0)
(-0.00120703 3.90245e-07 0)
(-0.00120517 3.9069e-07 0)
(-0.00120332 3.91739e-07 0)
(-0.00120145 3.93416e-07 0)
(-0.00119958 3.95716e-07 0)
(-0.00119771 3.98714e-07 0)
(-0.00119581 4.02247e-07 0)
(-0.00119392 4.06915e-07 0)
(-0.00119194 4.11459e-07 0)
(-0.00119014 4.16747e-07 0)
(-0.00118778 4.28159e-07 0)
(-0.00118676 3.42939e-07 0)
(-0.00118318 5.90795e-07 0)
)
;
    }
    bottomWall
    {
        type            calculated;
        value           nonuniform List<vector> 
300
(
(-1.31114e-05 5.0901e-06 0)
(-4.51833e-05 3.91867e-06 0)
(-6.74577e-05 7.41733e-07 0)
(-7.11532e-05 -1.47091e-06 0)
(-6.27273e-05 -1.98376e-06 0)
(-5.23911e-05 -1.15831e-06 0)
(-4.78848e-05 5.4116e-07 0)
(-5.31443e-05 2.14748e-06 0)
(-6.63217e-05 2.85555e-06 0)
(-8.22868e-05 2.56086e-06 0)
(-9.65076e-05 2.98437e-06 0)
(-0.00010674 5.08816e-06 0)
(-0.000113344 5.99279e-06 0)
(-0.000110969 4.1334e-06 0)
(-9.35318e-05 6.77835e-07 0)
(-5.00582e-05 -2.98667e-06 0)
(2.86045e-05 -9.18181e-06 0)
(0.000130857 -1.08442e-05 0)
(0.000243592 -1.51274e-05 0)
(0.000371831 -2.2872e-05 0)
(0.000508851 -2.73265e-05 0)
(0.000641036 -2.77482e-05 0)
(0.000763704 -2.7046e-05 0)
(0.000876516 -2.65172e-05 0)
(0.000980148 -2.62963e-05 0)
(0.00107284 -2.45296e-05 0)
(0.0011533 -2.12663e-05 0)
(0.00122249 -1.81958e-05 0)
(0.00128205 -1.57452e-05 0)
(0.00133329 -1.37192e-05 0)
(0.00137715 -1.20199e-05 0)
(0.0014143 -1.05136e-05 0)
(0.00144535 -9.18342e-06 0)
(0.00147074 -8.11318e-06 0)
(0.00149073 -7.1231e-06 0)
(0.00150542 -6.12844e-06 0)
(0.00151516 -5.12231e-06 0)
(0.00152018 -4.08929e-06 0)
(0.0015206 -3.12425e-06 0)
(0.00151677 -2.26389e-06 0)
(0.00150914 -1.51041e-06 0)
(0.00149795 -7.27901e-07 0)
(0.00148333 3.30461e-08 0)
(0.00146548 7.72262e-07 0)
(0.00144461 1.49656e-06 0)
(0.00142106 2.23085e-06 0)
(0.00139517 3.01659e-06 0)
(0.00136723 3.72768e-06 0)
(0.00133732 4.21331e-06 0)
(0.00130549 4.59196e-06 0)
(0.001272 4.93123e-06 0)
(0.00123703 5.22728e-06 0)
(0.00120076 5.48488e-06 0)
(0.00116335 5.70433e-06 0)
(0.00112496 5.88701e-06 0)
(0.00108574 6.03341e-06 0)
(0.00104584 6.14365e-06 0)
(0.00100541 6.21849e-06 0)
(0.000964587 6.27045e-06 0)
(0.000923501 6.36297e-06 0)
(0.000882305 6.64119e-06 0)
(0.000840766 6.94604e-06 0)
(0.00079917 7.02567e-06 0)
(0.000757678 7.0498e-06 0)
(0.000716365 7.06413e-06 0)
(0.000675306 7.06635e-06 0)
(0.000634568 7.05933e-06 0)
(0.000594209 7.04422e-06 0)
(0.000554288 7.02127e-06 0)
(0.000514862 6.99162e-06 0)
(0.000475984 6.95765e-06 0)
(0.000437703 6.92256e-06 0)
(0.000400055 6.89041e-06 0)
(0.000363071 6.86497e-06 0)
(0.000326785 6.85131e-06 0)
(0.000291223 6.86076e-06 0)
(0.00025641 6.92063e-06 0)
(0.000222339 7.10932e-06 0)
(0.000188944 7.47962e-06 0)
(0.000155269 7.69231e-06 0)
(0.000123731 7.0282e-06 0)
(9.27645e-05 6.97493e-06 0)
(6.24929e-05 7.2406e-06 0)
(3.34048e-05 7.01829e-06 0)
(4.62488e-06 6.67508e-06 0)
(-2.3689e-05 5.48975e-06 0)
(-5.04601e-05 4.6593e-06 0)
(-7.65598e-05 4.5711e-06 0)
(-0.000101961 4.56673e-06 0)
(-0.00012665 4.49963e-06 0)
(-0.000150626 4.56213e-06 0)
(-0.000174004 4.63637e-06 0)
(-0.000196679 4.50975e-06 0)
(-0.000218615 4.28517e-06 0)
(-0.000239853 4.06599e-06 0)
(-0.000260418 3.861e-06 0)
(-0.000280334 3.66723e-06 0)
(-0.000299619 3.48293e-06 0)
(-0.000318291 3.3074e-06 0)
(-0.000336366 3.14016e-06 0)
(-0.000353861 2.98089e-06 0)
(-0.000370793 2.82926e-06 0)
(-0.000387179 2.68492e-06 0)
(-0.000403034 2.54757e-06 0)
(-0.000418376 2.4169e-06 0)
(-0.000433221 2.29265e-06 0)
(-0.000447585 2.17451e-06 0)
(-0.000461484 2.06221e-06 0)
(-0.000474933 1.95553e-06 0)
(-0.000487947 1.85418e-06 0)
(-0.000500542 1.75792e-06 0)
(-0.000512732 1.66655e-06 0)
(-0.000524531 1.57981e-06 0)
(-0.000535953 1.49751e-06 0)
(-0.000547012 1.41942e-06 0)
(-0.00055772 1.34535e-06 0)
(-0.000568091 1.27509e-06 0)
(-0.000578137 1.20846e-06 0)
(-0.000587868 1.14527e-06 0)
(-0.000597298 1.08535e-06 0)
(-0.000606436 1.02852e-06 0)
(-0.000615294 9.74615e-07 0)
(-0.000623882 9.23491e-07 0)
(-0.000632209 8.74997e-07 0)
(-0.000640285 8.28997e-07 0)
(-0.000648118 7.85367e-07 0)
(-0.000655719 7.43986e-07 0)
(-0.000663094 7.04748e-07 0)
(-0.000670253 6.67553e-07 0)
(-0.000677202 6.32312e-07 0)
(-0.00068395 5.9894e-07 0)
(-0.000690504 5.67384e-07 0)
(-0.000696872 5.37563e-07 0)
(-0.00070306 5.09682e-07 0)
(-0.000709075 4.8349e-07 0)
(-0.000714923 4.58896e-07 0)
(-0.000720613 4.35832e-07 0)
(-0.00072615 4.14237e-07 0)
(-0.00073154 3.94037e-07 0)
(-0.00073679 3.75142e-07 0)
(-0.000741906 3.57447e-07 0)
(-0.000746894 3.40833e-07 0)
(-0.000751758 3.25182e-07 0)
(-0.000756503 3.10392e-07 0)
(-0.000761134 2.96369e-07 0)
(-0.000765654 2.83043e-07 0)
(-0.000770068 2.70352e-07 0)
(-0.000774377 2.5825e-07 0)
(-0.000778587 2.46694e-07 0)
(-0.000782699 2.35654e-07 0)
(-0.000786717 2.25094e-07 0)
(-0.000790643 2.14985e-07 0)
(-0.00079448 2.05296e-07 0)
(-0.00079823 1.95997e-07 0)
(-0.000801896 1.87054e-07 0)
(-0.000805479 1.78438e-07 0)
(-0.000808982 1.70115e-07 0)
(-0.000812406 1.62059e-07 0)
(-0.000815753 1.54238e-07 0)
(-0.000819025 1.46628e-07 0)
(-0.000822223 1.39203e-07 0)
(-0.000825348 1.31946e-07 0)
(-0.000828402 1.24835e-07 0)
(-0.000831386 1.17858e-07 0)
(-0.000834301 1.11e-07 0)
(-0.000837147 1.04254e-07 0)
(-0.000839926 9.76105e-08 0)
(-0.000842638 9.10645e-08 0)
(-0.000845285 8.46099e-08 0)
(-0.000847867 7.82449e-08 0)
(-0.000850385 7.19644e-08 0)
(-0.00085284 6.57674e-08 0)
(-0.000855233 5.96497e-08 0)
(-0.000857564 5.3611e-08 0)
(-0.000859833 4.76473e-08 0)
(-0.000862042 4.1758e-08 0)
(-0.000864192 3.59394e-08 0)
(-0.000866282 3.01914e-08 0)
(-0.000868314 2.45102e-08 0)
(-0.000870288 1.88949e-08 0)
(-0.000872205 1.33424e-08 0)
(-0.000874065 7.85168e-09 0)
(-0.00087587 2.41963e-09 0)
(-0.000877618 -2.95507e-09 0)
(-0.000879312 -8.27472e-09 0)
(-0.000880951 -1.35401e-08 0)
(-0.000882537 -1.87527e-08 0)
(-0.000884069 -2.39128e-08 0)
(-0.000885549 -2.902e-08 0)
(-0.000886976 -3.40728e-08 0)
(-0.000888351 -3.90695e-08 0)
(-0.000889675 -4.40067e-08 0)
(-0.000890949 -4.88806e-08 0)
(-0.000892172 -5.36856e-08 0)
(-0.000893346 -5.84167e-08 0)
(-0.000894471 -6.30666e-08 0)
(-0.000895548 -6.76291e-08 0)
(-0.000896577 -7.20959e-08 0)
(-0.000897559 -7.64606e-08 0)
(-0.000898495 -8.07147e-08 0)
(-0.000899386 -8.48522e-08 0)
(-0.000900232 -8.88651e-08 0)
(-0.000901034 -9.27485e-08 0)
(-0.000901792 -9.64956e-08 0)
(-0.000902509 -1.00103e-07 0)
(-0.000903185 -1.03565e-07 0)
(-0.00090382 -1.06878e-07 0)
(-0.000904416 -1.10039e-07 0)
(-0.000904974 -1.13048e-07 0)
(-0.000905494 -1.15903e-07 0)
(-0.000905977 -1.18607e-07 0)
(-0.000906425 -1.2116e-07 0)
(-0.000906839 -1.23563e-07 0)
(-0.000907219 -1.25819e-07 0)
(-0.000907566 -1.27929e-07 0)
(-0.000907882 -1.29899e-07 0)
(-0.000908167 -1.31729e-07 0)
(-0.000908423 -1.33426e-07 0)
(-0.00090865 -1.34991e-07 0)
(-0.000908849 -1.36432e-07 0)
(-0.000909021 -1.37751e-07 0)
(-0.000909166 -1.38953e-07 0)
(-0.000909287 -1.40039e-07 0)
(-0.000909384 -1.41011e-07 0)
(-0.000909456 -1.42099e-07 0)
(-0.000909507 -1.43129e-07 0)
(-0.000909535 -1.44293e-07 0)
(-0.000909542 -1.45626e-07 0)
(-0.000909527 -1.47079e-07 0)
(-0.00090949 -1.48464e-07 0)
(-0.000909433 -1.49666e-07 0)
(-0.000909356 -1.50629e-07 0)
(-0.000909261 -1.51353e-07 0)
(-0.000909149 -1.51853e-07 0)
(-0.000909021 -1.52173e-07 0)
(-0.000908877 -1.52342e-07 0)
(-0.000908719 -1.52377e-07 0)
(-0.000908548 -1.52307e-07 0)
(-0.000908364 -1.52143e-07 0)
(-0.000908167 -1.51908e-07 0)
(-0.000907958 -1.51609e-07 0)
(-0.000907739 -1.51258e-07 0)
(-0.000907508 -1.50855e-07 0)
(-0.000907268 -1.50406e-07 0)
(-0.000907018 -1.49907e-07 0)
(-0.000906758 -1.49362e-07 0)
(-0.00090649 -1.48769e-07 0)
(-0.000906214 -1.48131e-07 0)
(-0.00090593 -1.47452e-07 0)
(-0.000905639 -1.46717e-07 0)
(-0.000905341 -1.45736e-07 0)
(-0.000905036 -1.44767e-07 0)
(-0.000904726 -1.4374e-07 0)
(-0.00090441 -1.42671e-07 0)
(-0.000904089 -1.41554e-07 0)
(-0.000903764 -1.40389e-07 0)
(-0.000903435 -1.39162e-07 0)
(-0.000903103 -1.37893e-07 0)
(-0.000902768 -1.36593e-07 0)
(-0.00090243 -1.35238e-07 0)
(-0.00090209 -1.33771e-07 0)
(-0.000901749 -1.32158e-07 0)
(-0.000901408 -1.30379e-07 0)
(-0.000901068 -1.28449e-07 0)
(-0.000900729 -1.26382e-07 0)
(-0.000900393 -1.24157e-07 0)
(-0.000900059 -1.21801e-07 0)
(-0.000899729 -1.19394e-07 0)
(-0.000899403 -1.16987e-07 0)
(-0.000899081 -1.1463e-07 0)
(-0.000898763 -1.12366e-07 0)
(-0.000898449 -1.10244e-07 0)
(-0.000898139 -1.08315e-07 0)
(-0.000897832 -1.06624e-07 0)
(-0.000897528 -1.05206e-07 0)
(-0.000897226 -1.04075e-07 0)
(-0.000896924 -1.03191e-07 0)
(-0.000896622 -1.02463e-07 0)
(-0.000896319 -1.01781e-07 0)
(-0.000896015 -1.00918e-07 0)
(-0.000895711 -9.95561e-08 0)
(-0.000895409 -9.7297e-08 0)
(-0.000895113 -9.36997e-08 0)
(-0.000894827 -8.82921e-08 0)
(-0.000894559 -8.06518e-08 0)
(-0.000894318 -7.04484e-08 0)
(-0.000894115 -5.75939e-08 0)
(-0.000893963 -4.21402e-08 0)
(-0.000893874 -2.43771e-08 0)
(-0.00089386 -4.81986e-09 0)
(-0.000893929 1.84555e-08 0)
(-0.000894099 4.52602e-08 0)
(-0.000894378 7.41531e-08 0)
(-0.000894804 1.07094e-07 0)
(-0.00089534 1.42263e-07 0)
(-0.00089613 1.82735e-07 0)
(-0.000896837 2.1521e-07 0)
(-0.000898349 2.86532e-07 0)
(-0.000898593 2.00747e-07 0)
(-0.000901608 5.88593e-07 0)
)
;
    }
    stepWall
    {
        type            calculated;
        value           nonuniform List<vector> 
40
(
(-5.85297e-06 -8.44058e-06 0)
(-1.3297e-05 -1.57628e-06 0)
(-1.72771e-05 3.87136e-06 0)
(-1.91088e-05 9.51559e-06 0)
(-1.9174e-05 1.57138e-05 0)
(-1.87855e-05 2.19699e-05 0)
(-1.79711e-05 2.79687e-05 0)
(-1.67532e-05 3.36121e-05 0)
(-1.51775e-05 3.87739e-05 0)
(-1.32905e-05 4.33736e-05 0)
(-1.11545e-05 4.72758e-05 0)
(-8.84296e-06 5.04352e-05 0)
(-6.41715e-06 5.2829e-05 0)
(-3.9408e-06 5.44368e-05 0)
(-1.48056e-06 5.5234e-05 0)
(8.7761e-07 5.52233e-05 0)
(3.14902e-06 5.45035e-05 0)
(5.39316e-06 5.32103e-05 0)
(7.65558e-06 5.13347e-05 0)
(9.95386e-06 4.8865e-05 0)
(1.23113e-05 4.58068e-05 0)
(1.47616e-05 4.21621e-05 0)
(1.73499e-05 3.79391e-05 0)
(2.02113e-05 3.31509e-05 0)
(2.38798e-05 2.78031e-05 0)
(2.77101e-05 2.21611e-05 0)
(2.97356e-05 1.64123e-05 0)
(3.1873e-05 9.97455e-06 0)
(3.37965e-05 3.07151e-06 0)
(3.51897e-05 -3.99672e-06 0)
(3.75524e-05 -1.08236e-05 0)
(4.0225e-05 -1.81132e-05 0)
(3.87293e-05 -2.75532e-05 0)
(3.72717e-05 -3.77931e-05 0)
(3.64809e-05 -4.78235e-05 0)
(3.45064e-05 -5.79532e-05 0)
(3.07896e-05 -6.90698e-05 0)
(2.28716e-05 -8.76821e-05 0)
(-8.77568e-06 -0.000154027 0)
(-0.000284305 -0.000723363 0)
)
;
    }
    stepTop
    {
        type            calculated;
        value           nonuniform List<vector> 
40
(
(-0.00782297 -3.46003e-05 0)
(-0.00764805 -6.43839e-05 0)
(-0.00743913 -7.03616e-05 0)
(-0.00722491 -7.27859e-05 0)
(-0.00701855 -7.34339e-05 0)
(-0.00681855 -7.27824e-05 0)
(-0.00662283 -7.13439e-05 0)
(-0.00643157 -6.93781e-05 0)
(-0.00624538 -6.70515e-05 0)
(-0.00606448 -6.44646e-05 0)
(-0.00588897 -6.1709e-05 0)
(-0.00571924 -5.84119e-05 0)
(-0.00555401 -5.47102e-05 0)
(-0.00539332 -5.12458e-05 0)
(-0.00523795 -4.79607e-05 0)
(-0.00508902 -4.44697e-05 0)
(-0.00494795 -4.10835e-05 0)
(-0.00481381 -3.82052e-05 0)
(-0.00468586 -3.56878e-05 0)
(-0.00456469 -3.30947e-05 0)
(-0.00445162 -3.00615e-05 0)
(-0.00434858 -2.66149e-05 0)
(-0.00425602 -2.30386e-05 0)
(-0.00417397 -1.95267e-05 0)
(-0.00410232 -1.58838e-05 0)
(-0.00404107 -1.21786e-05 0)
(-0.00398984 -8.87218e-06 0)
(-0.0039477 -6.11406e-06 0)
(-0.00391349 -3.87657e-06 0)
(-0.00388602 -2.14905e-06 0)
(-0.00386426 -7.46789e-07 0)
(-0.00384736 3.99753e-07 0)
(-0.00383464 1.36611e-06 0)
(-0.00382567 2.34631e-06 0)
(-0.00382036 3.33686e-06 0)
(-0.00381877 4.31429e-06 0)
(-0.00382044 5.08979e-06 0)
(-0.00382524 7.09313e-06 0)
(-0.00384049 6.80331e-06 0)
(-0.00383839 1.92265e-05 0)
)
;
    }
    frontAndBack
    {
        type            empty;
    }
}


// ************************************************************************* //
